;atomization_energy;atomtypes;coordinates;dipole;forces;heavy;name;nuclear_charges;size;smiles;total_energy
24;-674.5438785392327;['C', 'C', 'O', 'H', 'H', 'H', 'H'];[[-0.640904, -0.10022, -0.002923], [0.850183, 0.122111, 0.038463], [1.367554, 1.186749, 0.338891], [-1.1233, 0.767976, 0.512445], [-1.041993, -0.058474, -1.03372], [-0.933831, -1.098936, 0.398979], [1.470479, -0.814324, -0.142972]];[-1.6295, -2.102, -0.6761];[[-17.15101962735011, 12.795114695255851, -0.8250124667224756], [14.720478976359155, 3.300429329626723, 13.419071202515841], [-11.06659196559422, -28.044431914785555, -12.121120097040755], [5.066920863570451, -20.435526937704036, -1.3644531359240126], [9.314419220860222, -3.053094331945761, 2.543409470416251], [4.80752250832174, 17.293149767068513, -0.27598443431094605], [-5.691729976167234, 18.144360578305317, -1.3759093531128486]];3;mc_amon00012_001_025;[6, 6, 8, 1, 1, 1, 1];7;CC=O;-96494.68850726089
25;-637.6033132154896;['C', 'C', 'O', 'H', 'H', 'H', 'H'];[[-0.68458, -0.10535, -0.026736], [0.863946, 0.104248, 0.094463], [1.405886, 1.233548, 0.292754], [-1.161949, 0.506667, 0.932106], [-1.098953, 0.185038, -1.063094], [-1.107786, -1.374179, -0.000662], [1.481554, -0.997619, 0.175833]];[-1.7126, -2.0226, -0.4417];[[-39.917439115534876, -40.57534686535085, 18.84871575292925], [40.369571338099156, 20.45880579078695, 33.366941090562825], [-50.72100767092268, -110.41870916947177, -25.23380597092103], [20.236764356157213, -36.24068828905542, -66.36761051769342], [14.70964768686502, 6.496084254332966, 40.609624208696324], [41.53623070827629, 90.69903512731734, 8.675210683222135], [-26.21376730294014, 69.58081915144078, -9.89907406097503]];3;mc_amon00012_001_026;[6, 6, 8, 1, 1, 1, 1];7;CC=O;-96457.74794193714
26;-648.4378623030226;['C', 'C', 'O', 'H', 'H', 'H', 'H'];[[-0.682987, -0.078897, 0.01268], [0.890619, 0.060403, 0.074091], [1.357577, 1.212857, 0.294642], [-1.105418, 0.71386, 0.829823], [-0.87665, 0.145423, -1.090667], [-1.164836, -1.248173, 0.062373], [1.731717, -0.748122, -0.008852]];[-1.3977, -2.1972, -0.5703];[[-3.2019634927058913, -40.85333770888275, -1.535766331746051], [41.33620166984532, 70.10045067995921, 33.73253802181615], [-37.5517415313403, -79.84834797240582, -18.367459765313946], [16.529311436805788, -48.93042855393819, -55.67690129516248], [-6.327194876742372, 10.566243073211558, 34.4577446738284], [36.681670236262434, 77.06452039850824, 12.093639879968604], [-47.46628344212499, 11.900898897726705, -4.703796369211727]];3;mc_amon00012_001_027;[6, 6, 8, 1, 1, 1, 1];7;CC=O;-96468.58249102467
27;-634.5047599110077;['C', 'C', 'O', 'H', 'H', 'H', 'H'];[[-0.671527, -0.151748, -0.006665], [0.783104, 0.144922, 0.118569], [1.442458, 1.217398, 0.292797], [-1.22475, 0.576051, 0.647497], [-0.949568, 0.322855, -1.31506], [-0.843509, -1.335766, 0.211655], [1.345821, -0.923998, -0.012948]];[-2.1372, -2.0243, -0.4077];[[-27.415320643410066, 23.52069417165854, -54.468317221671896], [97.89531232437973, 12.739423795343164, 2.1659163823635894], [-74.9838147453399, -94.37449578049159, -14.459450117163163], [-0.5743785148732756, -22.80790662352981, -12.799682477950334], [14.519168065370366, -47.14103525800626, 94.10832045792748], [-1.0415350901735752, 74.26922593503232, -21.110065827782265], [-8.39943021013223, 53.79409375999365, 6.563278804276592]];3;mc_amon00012_001_028;[6, 6, 8, 1, 1, 1, 1];7;CC=O;-96454.64938863265
28;-658.9002380315061;['C', 'C', 'O', 'H', 'H', 'H', 'H'];[[-0.640376, -0.095727, 0.024752], [0.842713, 0.146098, 0.093158], [1.390994, 1.181681, 0.298417], [-1.419265, 0.594553, 0.497482], [-0.784356, 0.108405, -1.090379], [-0.921199, -1.309446, 0.106867], [1.238141, -0.866223, -0.147133]];[-1.6299, -1.9133, -0.6936];[[-56.34549566430419, -35.89444870066417, -34.39682786053705], [-44.95195504720186, -36.20454683501533, 11.509041959264318], [20.902974039162217, 13.985792870852702, 2.2096091448664192], [31.9680920291881, -22.13820706916711, -2.3436341976905344], [-2.790191875486718, -8.855804114601552, 21.043355092828083], [16.965693584149907, 78.8193161794105, 3.5504549552759572], [34.250882934492545, 10.287898855006006, -1.572000279828244]];3;mc_amon00012_001_029;[6, 6, 8, 1, 1, 1, 1];7;CC=O;-96479.04486675316
29;-645.2800815168348;['C', 'C', 'O', 'H', 'H', 'H', 'H'];[[-0.644187, -0.068728, -0.002201], [0.79984, 0.151015, 0.029531], [1.405998, 1.173459, 0.326564], [-1.417275, 0.613731, 0.678371], [-0.877882, -0.176297, -1.066354], [-0.812647, -1.318038, 0.269709], [1.49188, -0.867683, 0.107282]];[-1.9816, -1.9736, -0.6273];[[-71.43048654565357, -73.84178132096137, 31.95007229247331], [92.71568865633134, -13.498836641437714, 74.1427830220183], [-30.112959185744042, -19.13555875061854, -23.953997927550198], [55.45377009098543, -37.57444288957061, -49.88049177975897], [-16.66521008689296, 16.515079212532896, -3.47655340145902], [8.95307108643824, 85.26039731004127, -4.720432252758169], [-38.91387401546444, 42.27514189419304, -24.061378767144216]];3;mc_amon00012_001_030;[6, 6, 8, 1, 1, 1, 1];7;CC=O;-96465.42471023848
30;-618.8934135508372;['C', 'C', 'O', 'H', 'H', 'H', 'H'];[[-0.63208, -0.082363, -0.056198], [0.769652, 0.205371, -0.0705], [1.420694, 1.137815, 0.452866], [-1.319261, 0.768061, 0.090848], [-1.122014, -1.112175, -0.892945], [-0.599309, -0.643822, 1.264181], [1.381368, -0.630125, -0.609178]];[-2.2013, -1.9819, -0.7588];[[-79.71135718112924, -100.13964705294947, 60.08922522129569], [117.59320520544064, 17.25214051760764, -10.310721166983685], [-57.11640978878758, -47.74767047715142, -29.50136486295705], [4.1059302967502855, -9.02307247481329, -9.00101145995136], [43.03325863787714, 85.89300082441657, 66.0594440858369], [-11.392698684155006, 30.107502037260137, -93.32924314131823], [-16.51192848599623, 23.657746625629855, 15.993672509898778]];3;mc_amon00012_001_031;[6, 6, 8, 1, 1, 1, 1];7;CC=O;-96439.03804227248
31;-641.8114074367735;['C', 'C', 'O', 'H', 'H', 'H', 'H'];[[-0.707683, -0.097168, -0.014629], [0.848209, 0.202789, -0.08964], [1.443378, 1.16295, 0.458176], [-1.439609, 0.719219, -0.074917], [-1.047842, -1.181514, -0.825451], [-0.831564, -0.708311, 1.019962], [1.302951, -0.614767, -0.646724]];[-1.5947, -1.9709, -0.7902];[[3.3473961440556868, -109.98314523865392, 7.460044117068756], [-19.649774634389903, 61.682706649491166, 38.71712258642276], [-47.24457996649524, -76.117086137961, -46.30823313278949], [8.7894526834263, -4.5173805564642135, -0.7750395959252585], [27.173339627781438, 89.92270891555005, 49.09992388608665], [3.7379237771181484, 40.07759254943121, -45.85053703784655], [23.846242368503567, -1.0653973672143515, -2.3432820088379223]];3;mc_amon00012_001_032;[6, 6, 8, 1, 1, 1, 1];7;CC=O;-96461.95603615842