;atomization_energy;atomtypes;coordinates;dipole;forces;heavy;name;nuclear_charges;size;smiles;total_energy
0;-545.415878548286;['C', 'C', 'H', 'H', 'H', 'H'];[[0.609335, -0.156431, 0.146162], [-0.583906, 0.149877, -0.158761], [1.096282, -1.10494, -0.079842], [1.184802, 0.710321, 0.497972], [-1.086374, 1.010802, 0.317952], [-1.472897, -0.562174, -0.578283]];[0.0528, 0.0126, 0.1783];[[94.19908675875399, -3.364600035886307, 5.355878180196464], [-180.4087907407845, -19.25263604895939, -12.100021968873511], [1.6814361473063597, 5.848870238769009, -1.2559410230458452], [9.073268279968389, -18.717811781115486, 9.867830047882034], [14.344195425780109, 5.136245148124486, -19.129916614050433], [61.110802943154596, 30.349933664888738, 17.26217019207024]];2;mc_amon00011_001_001;[6, 6, 1, 1, 1, 1];6;C=C;-49279.619720661416
1;-541.2709245185181;['C', 'C', 'H', 'H', 'H', 'H'];[[0.611085, -0.145308, 0.081011], [-0.622433, 0.140039, -0.123838], [1.185124, -1.150822, 0.00083], [1.172891, 0.587359, 0.875409], [-0.980243, 1.204382, 0.114267], [-1.241146, -0.595816, -0.478892]];[-0.2062, -0.1627, 0.2144];[[131.30927359131888, -6.100218054891854, 97.34083070094745], [-35.17560516442, 77.060228912119, 8.49844389637935], [-33.761844403309254, 38.70309076590776, -6.687222006511794], [-18.039051368090128, -34.26713935530216, -60.19989078520532], [2.973810336371229, -44.5118814389211, -7.226668604818594], [-47.30658417769178, -30.884082014732677, -31.72549320079108]];2;mc_amon00011_001_002;[6, 6, 1, 1, 1, 1];6;C=C;-49275.474766631654
2;-553.302965874299;['C', 'C', 'H', 'H', 'H', 'H'];[[0.613718, -0.134855, 0.142261], [-0.626266, 0.145287, -0.16082], [1.031207, -1.076012, -0.199844], [1.4027, 0.539639, 0.696995], [-1.027916, 1.09418, 0.174901], [-1.2756, -0.673742, -0.444803]];[-0.005, -0.1165, 0.1513];[[78.12991895154362, 11.85299291302411, 18.46222465472972], [-20.10430340130143, 10.166705571791704, 25.990536489794675], [2.9371411919627444, -6.12052998370125, 6.8118743297364315], [-43.68611953329341, -23.680765783902253, -30.686314337048955], [-11.352176807146737, 0.5840607437674733, -5.329096411724272], [-5.9244604017648, 7.197536539020217, -15.249224725487604]];2;mc_amon00011_001_003;[6, 6, 1, 1, 1, 1];6;C=C;-49287.50680798743
3;-547.2962503461541;['C', 'C', 'H', 'H', 'H', 'H'];[[0.61019, -0.156034, 0.103956], [-0.628903, 0.139316, -0.09301], [1.239566, -0.986061, -0.043786], [1.1593, 0.560404, 0.636394], [-0.862356, 1.151547, -0.012873], [-1.294939, -0.569451, -0.721565]];[0.2631, 0.1193, -0.1102];[[46.45592595906547, 1.8978579759679914, 29.143244533440154], [-57.93993286426803, -61.40813097059067, -74.5771860340257], [-2.385501981593466, -39.94935548916467, -13.799519356631496], [24.1190096702989, 33.187797918330695, 14.757985310430747], [-28.14490771839049, 34.756794513432794, 14.060717788238001], [17.895406934887603, 31.515036052023856, 30.41475775854829]];2;mc_amon00011_001_004;[6, 6, 1, 1, 1, 1];6;C=C;-49281.50009245929
4;-541.6016521945847;['C', 'C', 'H', 'H', 'H', 'H'];[[0.60705, -0.169396, 0.142508], [-0.6164, 0.173965, -0.116028], [1.211993, -0.970169, -0.220229], [1.434037, 0.498827, 0.568766], [-1.279465, 1.125264, -0.055791], [-1.273506, -0.686463, -0.61826]];[0.076, 0.0539, -0.2289];[[98.03751361336128, 56.58267410466993, 24.795511094219123], [-114.49293298291855, -27.656824958975562, -50.13933517075508], [-19.490188022956684, -37.26923389541919, -6.417414514063662], [-39.8664250938535, -1.5532631213766557, -3.852868969206484], [44.635786694882626, -33.573673575403944, 14.629066403058982], [31.176245791484828, 43.47032263232648, 20.98504115674712]];2;mc_amon00011_001_005;[6, 6, 1, 1, 1, 1];6;C=C;-49275.805494307715
5;-551.9850771910649;['C', 'C', 'H', 'H', 'H', 'H'];[[0.614072, -0.119726, 0.120303], [-0.605524, 0.138676, -0.13361], [0.891931, -1.136535, -0.145044], [1.368216, 0.523136, 0.745763], [-1.109345, 1.054684, 0.090856], [-1.271227, -0.63597, -0.527]];[-0.1111, -0.1009, 0.1483];[[109.61541027204281, -12.095286985410617, 48.193889010126576], [-94.56248873523901, 14.442466788048321, -14.395915010987755], [18.779957105017292, 1.405492030911201, 4.71027806708505], [-35.58484031040773, -25.191932257912832, -37.5111603632794], [-3.873216472647456, 16.704785678701278, 5.060263664181348], [5.625178141234098, 4.7344735598415975, -6.057357738767925]];2;mc_amon00011_001_006;[6, 6, 1, 1, 1, 1];6;C=C;-49286.1889193042
6;-539.7589531162554;['C', 'C', 'H', 'H', 'H', 'H'];[[0.637819, -0.135768, 0.091288], [-0.645179, 0.169227, -0.104842], [0.958045, -1.240003, 0.06602], [1.277745, 0.480492, 0.698143], [-1.140247, 1.16349, 0.170004], [-1.054254, -0.808869, -0.722199]];[-0.0593, -0.0031, 0.2631];[[2.402929993603021, -35.399764475449615, 41.261844760744204], [-8.668770489085652, -52.54763574790516, -44.31014481817444], [-5.517771213576923, 43.12320672217739, -15.373112194133336], [11.9576096037446, 11.03584481152225, -1.0439541651208089], [11.925630381599012, -40.956328638940164, -19.24394872392829], [-12.09962827628406, 74.74467732859532, 38.709315140612674]];2;mc_amon00011_001_007;[6, 6, 1, 1, 1, 1];6;C=C;-49273.96279522939
7;-539.6898928748345;['C', 'C', 'H', 'H', 'H', 'H'];[[0.59837, -0.141941, 0.166644], [-0.598448, 0.104909, -0.152811], [1.027635, -1.013138, -0.152775], [1.335647, 0.760072, 0.388433], [-0.91547, 1.034338, 0.260785], [-1.413946, -0.350973, -0.68152]];[-0.1108, 0.1138, -0.2822];[[118.70631408270495, 49.55440640597712, 7.374761052789295], [-106.14335824729933, 58.71715555675105, 2.9056362982381834], [38.26889290094247, -55.47382232498431, -13.559617085308012], [-38.60912156241825, -51.073489421334635, 9.574583616508892], [-16.340624776742608, 27.969757205642345, -5.013746275931307], [4.117897602812777, -29.694008607872636, -1.2816176062970468]];2;mc_amon00011_001_008;[6, 6, 1, 1, 1, 1];6;C=C;-49273.89373498797
8;-553.3031626612775;['C', 'C', 'H', 'H', 'H', 'H'];[[0.651792, -0.137868, 0.114566], [-0.633453, 0.128102, -0.130934], [0.942153, -1.151313, -0.018569], [1.222663, 0.664844, 0.689469], [-1.013689, 1.150369, 0.195842], [-1.360243, -0.550284, -0.668215]];[-0.1023, -0.0661, 0.1345];[[-25.10188693628627, 35.092620221340404, 29.213613526341494], [-21.25140739650071, 30.45098577752522, -2.890425771596925], [27.35679800282385, -13.198330613580765, -5.882927019398691], [-6.866448186217604, -36.55266357813278, -21.946883143083028], [3.6581737538699586, -32.050344134857205, -17.012031913421012], [22.20477194813182, 16.257731141884072, 18.518653135337104]];2;mc_amon00011_001_009;[6, 6, 1, 1, 1, 1];6;C=C;-49287.50700477441
9;-548.5153938875276;['C', 'C', 'H', 'H', 'H', 'H'];[[0.627411, -0.163707, 0.140073], [-0.642143, 0.190323, -0.155282], [1.011581, -1.125246, -0.07158], [1.397733, 0.583275, 0.551646], [-1.20116, 0.974147, 0.26913], [-1.073686, -0.738789, -0.53003]];[-0.0029, -0.1763, 0.203];[[11.394291241828602, 86.10289115072067, 16.19704319205587], [50.66900704612557, -82.23142257830469, 12.159216969996528], [8.86112726530652, -22.20998126001574, -11.763533386997514], [-28.360199459589023, -27.404964868158007, -7.203502404735675], [-11.48667144510767, 29.26773439918059, -3.085139960070292], [-31.07755583438506, 16.47574315657719, -6.304085596069974]];2;mc_amon00011_001_010;[6, 6, 1, 1, 1, 1];6;C=C;-49282.71923600066
10;-541.2332856844804;['C', 'C', 'H', 'H', 'H', 'H'];[[0.644757, -0.148967, 0.128095], [-0.682604, 0.113537, -0.111977], [1.172069, -1.061513, -0.122171], [1.355918, 0.70881, 0.649916], [-0.746017, 1.250835, 0.04701], [-1.310125, -0.506564, -0.792771]];[0.2448, 0.0283, -0.3643];[[-2.5368186770060914, 46.67094021813771, 22.257248087171007], [80.38978437843883, 43.91906222085939, -10.024779393294345], [-1.8246513132878577, -6.176390456024454, 1.6314561615828274], [-46.71464958213527, -55.129749231656106, -31.346256955791148], [-34.86130210861644, -43.54636933642751, -5.838718424737996], [5.547636116785785, 14.262505399289923, 23.32105052506966]];2;mc_amon00011_001_011;[6, 6, 1, 1, 1, 1];6;C=C;-49275.43712779762
11;-539.479011099686;['C', 'C', 'H', 'H', 'H', 'H'];[[0.623355, -0.1439, 0.087264], [-0.586146, 0.143064, -0.119884], [0.99379, -1.239863, 0.118746], [1.032035, 0.669544, 0.668471], [-1.140914, 1.121812, 0.27615], [-1.315374, -0.557883, -0.651616]];[-0.1881, -0.1071, 0.3536];[[93.23076663200791, -50.12413057321908, 55.43194505451296], [-186.3854545427464, 32.53897355777736, -34.64262603413388], [-1.7288606886616136, 52.01798403149256, -15.821392869918897], [36.88322068310384, -9.63714753524225, 4.542753569525958], [36.81770051248644, -44.03823130753696, -28.795662595617404], [21.1826274038098, 19.24255182672837, 19.284984061452324]];2;mc_amon00011_001_012;[6, 6, 1, 1, 1, 1];6;C=C;-49273.68285321282
12;-549.9946766269874;['C', 'C', 'H', 'H', 'H', 'H'];[[0.645067, -0.111158, 0.104413], [-0.618906, 0.133969, -0.118855], [0.750666, -1.163232, 0.026342], [1.339351, 0.483275, 0.708999], [-1.17043, 1.004472, 0.122176], [-1.255366, -0.562808, -0.660455]];[-0.221, -0.0898, 0.2354];[[4.82650987501542, -10.620385290829597, 33.75391956121496], [-38.40336619412445, 12.421787396560855, -20.08193170132373], [38.387865141325314, -22.588543958657816, -12.76753368339423], [-5.911919158312866, -1.4612801681501995, -10.56523631113793], [-3.1807538973597036, 31.81973277148057, 5.30382182180989], [4.281661861814182, -9.571311936224863, 4.356960312831043]];2;mc_amon00011_001_013;[6, 6, 1, 1, 1, 1];6;C=C;-49284.19851874012
13;-541.1105783403553;['C', 'C', 'H', 'H', 'H', 'H'];[[0.647033, -0.162342, 0.119599], [-0.622411, 0.147843, -0.15493], [1.012357, -1.16672, -0.050137], [1.015508, 0.78766, 0.66471], [-0.970276, 1.026215, 0.277051], [-1.316363, -0.484903, -0.47767]];[-0.2055, -0.1262, 0.2652];[[-31.762764742294266, 59.27297834379379, 20.56984133086498], [71.71932290853222, 11.326455162695536, 34.75245085091724], [20.53880839391934, 7.747299780484338, 1.7871082187636327], [27.30920863234229, -56.86936294562238, -17.77663035497843], [-20.65017833553419, 44.48629379224885, 3.9866959899148204], [-67.15439685696539, -65.96366413360012, -43.31946603548225]];2;mc_amon00011_001_014;[6, 6, 1, 1, 1, 1];6;C=C;-49275.31442045349
14;-547.701524704475;['C', 'C', 'H', 'H', 'H', 'H'];[[0.61522, -0.160568, 0.118235], [-0.601294, 0.136042, -0.140781], [1.168628, -1.058073, -0.101822], [1.208612, 0.714, 0.72277], [-1.059281, 1.089765, 0.114036], [-1.450974, -0.453348, -0.493042]];[-0.1267, -0.0409, 0.0733];[[100.53897466404302, 52.76907122797705, 56.155268622693725], [-107.35194824989519, 20.066208899987764, -9.76618265307717], [-2.183601717541552, -8.161718150292836, -0.11349256129894268], [-23.59359607832816, -54.93643431202477, -40.389513290740155], [14.231347951133761, 8.729143010513868, 7.035881855671326], [18.358824616409166, -18.466270676161077, -12.921963159069842]];2;mc_amon00011_001_015;[6, 6, 1, 1, 1, 1];6;C=C;-49281.905366817606
15;-558.3031449735172;['C', 'C', 'H', 'H', 'H', 'H'];[[0.622433, -0.142079, 0.132744], [-0.627216, 0.155842, -0.142328], [1.059399, -1.129676, -0.087954], [1.300627, 0.534149, 0.592904], [-1.093875, 1.054731, 0.187302], [-1.223383, -0.627629, -0.559697]];[-0.0086, -0.048, 0.131];[[21.123491693739407, -23.480922919376546, -4.182897197988105], [-1.7181645827674723, -17.035213529177614, 6.818539829872902], [-7.045019792702395, 10.010566142158293, -2.0669513147796272], [11.568434992503114, 16.652032057535795, 10.69738183759373], [-7.378925656325905, 17.79633395758786, -1.8234809079089753], [-16.549814282804647, -3.9427957087277914, -9.442591060968873]];2;mc_amon00011_001_016;[6, 6, 1, 1, 1, 1];6;C=C;-49292.50698708665
16;-555.3003360606054;['C', 'C', 'H', 'H', 'H', 'H'];[[0.637386, -0.139249, 0.125997], [-0.63068, 0.119366, -0.118693], [1.070499, -1.05463, -0.049646], [1.270153, 0.593508, 0.585491], [-1.006706, 1.11883, 0.081195], [-1.394071, -0.429773, -0.716313]];[0.0541, 0.0636, -0.0903];[[-18.342856350115316, 24.217004736261867, 10.122695009246788], [-34.481153967227094, 22.844003016369907, -26.843144198231403], [23.952662693045006, -51.25517973718767, -14.552617705621135], [5.35118944375462, 9.581977210771637, 7.758765484241593], [0.5538898987270482, 3.7544541225909116, 6.397899457001593], [22.966269467636785, -9.142258162985598, 17.11640313918362]];2;mc_amon00011_001_017;[6, 6, 1, 1, 1, 1];6;C=C;-49289.50417817374
17;-538.3224315078944;['C', 'C', 'H', 'H', 'H', 'H'];[[0.610681, -0.169798, 0.105671], [-0.605234, 0.136675, -0.083629], [1.163702, -1.028678, -0.190471], [1.05868, 0.726876, 0.667313], [-0.98239, 1.11281, -0.160375], [-1.257164, -0.40145, -0.638523]];[0.0677, 0.0703, -0.3333];[[89.53997687008714, 60.89552543180869, 59.430088960869256], [-60.455420992180564, 21.68016590029788, -37.97366496259048], [5.329490104313724, -18.103921708770727, 5.557151144911571], [18.22673838100599, -42.01196195560769, -22.327304023314476], [-4.907098273747772, 42.07492905349893, 32.80001071772071], [-47.733686089478525, -64.53473553540603, -37.48628183759658]];2;mc_amon00011_001_018;[6, 6, 1, 1, 1, 1];6;C=C;-49272.52627362103
18;-537.2394981222695;['C', 'C', 'H', 'H', 'H', 'H'];[[0.574502, -0.176954, 0.126927], [-0.587763, 0.144689, -0.148272], [1.270314, -0.934755, -0.112628], [1.198977, 0.720931, 0.622364], [-0.931058, 1.191898, 0.237337], [-1.363433, -0.632046, -0.502903]];[0.0834, -0.0686, 0.0377];[[202.00671995108698, 61.05830545933647, 64.6414297846106], [-199.38975874406427, 34.5582311498228, -13.47069473621823], [-3.238942136409095, -36.71858603144986, -7.377891620368068], [-24.86644690958359, -47.00596549683484, -22.156243407376632], [0.9626056550937602, -49.8427921568558, -24.38881123364177], [24.525822183876247, 37.95080707598123, 2.752211212994096]];2;mc_amon00011_001_019;[6, 6, 1, 1, 1, 1];6;C=C;-49271.443340235404
19;-536.9354841520143;['C', 'C', 'H', 'H', 'H', 'H'];[[0.640282, -0.123479, 0.122076], [-0.629763, 0.094089, -0.101344], [1.118674, -1.069394, -0.095292], [1.256266, 0.60646, 0.643881], [-0.894548, 1.055715, -0.084975], [-1.550552, -0.251666, -0.755077]];[0.0755, 0.2825, -0.1788];[[22.322565482388423, -36.977425864982806, 7.310965065982321], [-58.44675989706085, -31.842295388647734, -69.85004440575212], [3.7119187214353864, -5.99865959666593, 1.9510444218176608], [-2.407753913644858, 2.6548517471153072, -4.798204326490679], [-22.661192099622195, 101.69515493357862, 33.33841616514336], [57.48121933486199, -29.531623458755366, 32.04782307929945]];2;mc_amon00011_001_020;[6, 6, 1, 1, 1, 1];6;C=C;-49271.13932626515
20;-552.2611440228737;['C', 'C', 'H', 'H', 'H', 'H'];[[0.631116, -0.133525, 0.122654], [-0.653742, 0.118651, -0.113826], [1.089736, -1.098179, -0.127636], [1.276425, 0.625762, 0.668891], [-0.783143, 1.18206, 0.058475], [-1.298564, -0.558369, -0.718814]];[0.1363, 0.0498, -0.1769];[[21.44955809438441, -9.210723913097574, 17.66993491995279], [26.522124651986122, 9.84406737980967, -20.834982617471265], [0.8738647366250181, 6.498221103869688, 5.115142276673028], [-17.365034239275033, -24.307235045972632, -20.013501525843328], [-37.59072539844339, -1.477119179949317, 0.16538883384342098], [6.110212154722876, 18.65278965534016, 17.898018112845353]];2;mc_amon00011_001_021;[6, 6, 1, 1, 1, 1];6;C=C;-49286.46498613601
21;-558.8430585803975;['C', 'C', 'H', 'H', 'H', 'H'];[[0.637794, -0.145022, 0.126298], [-0.641904, 0.155069, -0.134449], [1.064402, -1.145979, -0.070954], [1.321118, 0.569503, 0.642738], [-1.084526, 1.082237, 0.151642], [-1.262077, -0.629133, -0.612633]];[-0.0284, -0.0351, 0.0982];[[4.5815749791448495, 6.434155935683783, 12.748331683090038], [19.710695005144405, -40.44043600420048, -6.417858011137321], [-6.266008882072095, 14.553655299042129, -2.1865223947940207], [-13.324020530226399, -12.156181268101962, -10.912595314602797], [-7.605374787808031, 14.710604644454442, -0.006768666568044102], [2.90313421581727, 16.898201393122086, 6.775412704012147]];2;mc_amon00011_001_022;[6, 6, 1, 1, 1, 1];6;C=C;-49293.04690069353
22;-546.3682659296844;['C', 'C', 'H', 'H', 'H', 'H'];[[0.641077, -0.151248, 0.09092], [-0.654987, 0.163203, -0.117734], [1.110899, -1.195136, 0.14355], [1.208739, 0.594694, 0.678104], [-0.985974, 1.041592, 0.222733], [-1.177167, -0.6232, -0.687846]];[-0.1121, -0.0482, 0.2594];[[1.470597164160207, -5.065359137244223, 50.21941129479272], [75.89879189785736, -121.94211853660896, -45.97666215081847], [-19.229348895129103, 36.2782124104428, -23.803613287484886], [2.648625000768286, -9.366942792741508, -9.727443065110904], [-43.174261061774544, 79.95635966879982, 16.44759413643139], [-17.614405291703253, 20.13984838735208, 12.840714258011207]];2;mc_amon00011_001_023;[6, 6, 1, 1, 1, 1];6;C=C;-49280.57210804282
23;-545.0861474200008;['C', 'C', 'H', 'H', 'H', 'H'];[[0.650279, -0.134312, 0.155016], [-0.629083, 0.162241, -0.151731], [0.83948, -1.192752, -0.134553], [1.26684, 0.543195, 0.476163], [-1.178154, 1.014386, 0.263249], [-1.202278, -0.681904, -0.613627]];[-0.0167, -0.0465, 0.1335];[[-126.3448847450585, -101.94759370506983, -74.98348627290832], [0.6841855443408447, -30.59098855427531, 19.020155831603912], [26.614584305275713, 25.02133292636444, 8.220962955900065], [92.56663450748701, 79.32838204235055, 53.97565482135196], [5.5556226215748135, 2.6665154829883417, -16.95787428012929], [0.9238577663801287, 25.5223518076418, 10.724585758360636]];2;mc_amon00011_001_024;[6, 6, 1, 1, 1, 1];6;C=C;-49279.289989533136
24;-549.311182075342;['C', 'C', 'H', 'H', 'H', 'H'];[[0.670169, -0.117021, 0.124225], [-0.646703, 0.144814, -0.13414], [0.89631, -1.194828, -0.084762], [1.395483, 0.464865, 0.756306], [-1.182559, 1.068462, 0.082364], [-1.405899, -0.645722, -0.619469]];[-0.11, -0.053, 0.2282];[[-46.58158978764795, -31.13618875632916, 7.910771141685759], [-5.443402446265274, -29.74418899735405, -12.210247593172635], [12.945193393489602, 26.405929604508387, 3.078214765123309], [-22.04639250253012, -6.593569417243326, -24.558282849369178], [9.666898599630064, 4.127005894317533, 2.682968750092689], [51.45929274332367, 36.94101048627957, 23.096574599819]];2;mc_amon00011_001_025;[6, 6, 1, 1, 1, 1];6;C=C;-49283.51502418848
25;-557.1114471905169;['C', 'C', 'H', 'H', 'H', 'H'];[[0.651436, -0.144401, 0.134503], [-0.652794, 0.125861, -0.127476], [1.122688, -1.092316, -0.147293], [1.288385, 0.608438, 0.643567], [-1.002049, 1.164221, 0.037017], [-1.372455, -0.459604, -0.641092]];[0.0262, 0.051, -0.1339];[[-28.498179225623442, 5.359001632848922, -4.5265315375268615], [46.72107910388228, 42.016769274154804, 11.080493345793446], [-3.8464524914910516, 4.596663366217693, 5.8592331289473805], [-9.913513803932121, -12.56890272798424, -10.27364528595417], [2.0327154751710075, -14.751637610336367, 7.07527838850071], [-6.495649058006674, -24.65189512072186, -9.214828039760503]];2;mc_amon00011_001_026;[6, 6, 1, 1, 1, 1];6;C=C;-49291.31528930365
26;-535.1745980646452;['C', 'C', 'H', 'H', 'H', 'H'];[[0.598547, -0.148454, 0.187944], [-0.595831, 0.118776, -0.154725], [1.162101, -1.056403, -0.491536], [1.195156, 0.719462, 0.47552], [-0.925188, 1.187071, 0.055415], [-1.417181, -0.48884, -0.495843]];[-0.1888, 0.3073, -0.3787];[[130.80097139713664, -65.01612907826342, -69.62841445102761], [-114.6541512841201, 75.60270542506332, 7.491594071993315], [-31.40334949618797, 48.601583774567025, 68.62796213122017], [10.522155432298225, -14.356491204274164, 6.403330517422342], [-1.0725431248771116, -30.94650956404499, 0.47334181791048136], [5.8069182615713455, -13.885158167226727, -13.367812901697642]];2;mc_amon00011_001_027;[6, 6, 1, 1, 1, 1];6;C=C;-49269.37844017778