;atomization_energy;atomtypes;coordinates;dipole;forces;heavy;name;nuclear_charges;size;smiles;total_energy
19;-784.3735754241768;['C', 'C', 'O', 'H', 'H', 'H', 'H', 'H', 'H'];[[-0.890736, -0.243752, -0.019152], [0.425751, 0.560932, 0.001858], [1.463599, -0.299043, 0.542999], [-0.685493, -1.198255, -0.538305], [-1.743702, 0.283189, -0.586923], [-1.123555, -0.618679, 1.04771], [0.58038, 1.063186, -1.024519], [0.526732, 1.420111, 0.69104], [1.973416, -0.682834, -0.377485]];[-0.1904, 0.1823, -1.8231];[[-9.912395574679552, -3.4001556943264326, 15.33234366634613], [5.5192866928821, 14.060437934469597, 0.9345384566005867], [46.520219990714516, -25.124025029516616, -123.92227960855132], [-0.16644658622230943, 9.419510240001737, -4.9986673754268836], [24.667083116763116, -16.366123486835928, 29.457988714675256], [-3.7055532340252144, 24.440915024870446, -35.53606867633677], [8.815342714466963, -27.904330714888093, 25.500740218958793], [-24.93046938821161, -5.120460684093786, -1.5550133932502421], [-46.80706773168802, 29.994232410319075, 94.78641799698445]];3;mc_amon00030_001_020;[6, 6, 8, 1, 1, 1, 1, 1, 1];9;CCO;-97232.7902686936
20;-794.1304855490347;['C', 'C', 'O', 'H', 'H', 'H', 'H', 'H', 'H'];[[-0.840829, -0.238659, -0.031734], [0.389676, 0.508568, -0.041164], [1.478451, -0.272214, 0.559923], [-0.853776, -1.055409, -0.735841], [-1.687924, 0.481955, -0.193896], [-0.958269, -0.640214, 0.938422], [0.545852, 1.054284, -0.942901], [0.38661, 1.392448, 0.672377], [1.69479, -0.849575, -0.198973]];[-0.8224, -0.1234, -1.6995];[[-55.42329211829239, 14.245522070175078, -7.3051533570036975], [54.27893804211401, 53.958720110900266, 82.59390317183188], [-14.049129944912332, 6.068471253672569, -59.78513327057579], [-4.046175588090455, -6.927164595751064, -13.216384739106076], [9.39245336104535, -19.647162270611098, -4.74315495576743], [-8.604190674562933, -15.874362310515945, 28.73327536422088], [23.94411529489812, -6.843838136208336, -35.36635989639884], [-15.127170536189137, -21.90380226424332, -9.411405153107452], [9.63445334981082, -3.0763850432392004, 18.50041283590654]];3;mc_amon00030_001_021;[6, 6, 8, 1, 1, 1, 1, 1, 1];9;CCO;-97242.54717881845
21;-774.7662836382411;['C', 'C', 'O', 'H', 'H', 'H', 'H', 'H', 'H'];[[-0.956899, -0.247614, -0.057575], [0.434271, 0.460592, 0.025054], [1.570156, -0.196117, 0.495027], [-0.748618, -0.875233, -0.919225], [-1.852511, 0.454344, -0.296677], [-1.185852, -0.663194, 0.989166], [0.758498, 1.014225, -0.939936], [0.306052, 1.258821, 0.769278], [1.31799, -1.316121, 0.359764]];[-1.6331, -0.9446, -0.5353];[[9.352015677331812, 29.19924967593177, 16.877191015712732], [-11.42739817979518, 82.49032763199554, -4.957170753513406], [-32.4361735449094, -153.505638068188, -10.654130200522454], [-25.3830415503864, -29.491039919052362, 5.269944100159145], [42.517873534547945, -20.16876226207679, 4.560566973377599], [8.608676635604787, -5.250502564002333, -42.568505721850386], [-23.988899012769306, -22.756208383101114, 21.729369173231984], [-1.1949933784071343, 8.49632364833736, -3.9197125161185506], [33.95194100460393, 110.9862490543349, 13.662446743702287]];3;mc_amon00030_001_022;[6, 6, 8, 1, 1, 1, 1, 1, 1];9;CCO;-97223.18297690766
22;-788.9129231117535;['C', 'C', 'O', 'H', 'H', 'H', 'H', 'H', 'H'];[[-0.952819, -0.278414, -0.057756], [0.453819, 0.52658, 0.063788], [1.538714, -0.213695, 0.494054], [-0.852741, -1.001196, -0.881288], [-1.691701, 0.434714, -0.357978], [-1.12995, -0.692833, 0.946866], [0.679529, 0.874964, -1.009695], [0.432878, 1.411635, 0.677945], [1.365941, -1.268864, 0.195284]];[-1.3946, -0.8265, -0.7399];[[66.22592980415395, 25.383772016154783, 18.57511956221817], [-29.388688146542272, -11.124992466612023, -73.96294377282832], [-4.76533218109251, -121.52890140352672, -8.442048618761437], [-0.7373162566010437, -5.305295797378228, 12.167853304722364], [-18.823180282383305, 10.55826605499095, 0.841838081637328], [-9.700931663838695, -6.572634932381334, -12.356384622227655], [-9.87138276775552, -1.5307194773463322, 26.170918845026737], [-10.856235611616462, 8.222677653142073, 10.818244276734367], [17.917135919854815, 101.89782953877788, 26.18740294347845]];3;mc_amon00030_001_023;[6, 6, 8, 1, 1, 1, 1, 1, 1];9;CCO;-97237.32961638118
23;-788.4409857864167;['C', 'C', 'O', 'H', 'H', 'H', 'H', 'H', 'H'];[[-0.804106, -0.261737, -0.032665], [0.43212, 0.554729, 0.037849], [1.44282, -0.233752, 0.491417], [-0.843594, -1.025185, -0.805688], [-1.721319, 0.405923, -0.244747], [-1.037919, -0.93263, 0.923296], [0.681615, 0.831249, -1.061334], [0.483621, 1.468533, 0.681737], [1.265907, -1.222788, 0.19764]];[-1.2949, -0.8414, -0.8427];[[-94.09665079294918, -5.987311289192879, 43.806830187339315], [14.643718407984482, 15.801741443435782, -52.95976073979801], [42.34258783819981, -99.64035472712466, 9.310602062892013], [14.482679165761871, 2.291469929588176, -14.842974291089174], [25.70496587809479, -23.800353465411384, 10.815374589787158], [13.113242023953926, 43.718385724133725, -33.12223861561856], [-12.413835280582349, 8.691022421137044, 31.76675028685194], [-17.802732647987504, -13.541543986645863, -13.268328444492658], [14.026025407524145, 72.46694395008005, 18.493744964127966]];3;mc_amon00030_001_024;[6, 6, 8, 1, 1, 1, 1, 1, 1];9;CCO;-97236.85767905583
24;-739.7321096671777;['C', 'C', 'O', 'H', 'H', 'H', 'H', 'H', 'H'];[[-0.901776, -0.233093, -0.051227], [0.43152, 0.443774, 0.030689], [1.540892, -0.165732, 0.479192], [-0.891375, -0.922873, -0.905206], [-1.635539, 0.448522, -0.405676], [-1.055921, -0.682096, 0.92763], [0.60892, 0.947235, -0.960061], [0.342677, 1.146673, 0.978186], [1.131893, -1.498528, 0.431708]];[-1.8337, -0.9418, -0.5675];[[29.52728453952403, -26.762966093583234, -13.93061305981367], [-30.37316508512955, 100.7537754753258, 31.31271007821407], [1.37792999218642, -197.00738495840747, -1.9992859938781322], [4.494302107139183, -19.124397802871794, 10.108264752858116], [-23.33575114865831, 23.991786487032304, 11.894742114821783], [-19.410033634729572, -8.09695927679118, -3.088191077638543], [0.6177131594182307, 2.982867637570724, 18.999488156478748], [-14.044047515881037, 7.530164087549061, -56.24874571044642], [51.14576758613061, 115.73311325835475, 2.9516307394040426]];3;mc_amon00030_001_025;[6, 6, 8, 1, 1, 1, 1, 1, 1];9;CCO;-97188.1488029366
25;-796.5896317997226;['C', 'C', 'O', 'H', 'H', 'H', 'H', 'H', 'H'];[[-0.842931, -0.248732, -0.033469], [0.442181, 0.550095, 0.032802], [1.475333, -0.249737, 0.481582], [-0.688238, -1.221915, -0.499525], [-1.793361, 0.174385, -0.552115], [-1.2285, -0.452194, 0.941174], [0.726853, 1.011126, -0.884012], [0.280288, 1.225596, 0.867718], [1.360257, -1.080914, -0.030695]];[-1.2997, -0.5689, -1.0599];[[-52.83200986616301, 2.3299486369228752, -34.73475484334981], [-30.268674091440634, 0.6531241476899429, 30.304175202112344], [17.84403479524836, -46.2726739168862, -6.305455219385688], [2.6265604284431987, -5.603085109203749, -7.0345572935556095], [44.47032078267079, -1.779132386364077, 9.257307707326559], [1.4991114171901978, -6.382294051949828, 25.730198964272333], [-2.130417643333987, 20.486053586932805, -21.85026007207788], [4.278080682235435, 24.334789969771094, -8.876980506958267], [14.512994680970708, 12.233270308908196, 13.510327247437074]];3;mc_amon00030_001_026;[6, 6, 8, 1, 1, 1, 1, 1, 1];9;CCO;-97245.00632506915
26;-786.0771243393533;['C', 'C', 'O', 'H', 'H', 'H', 'H', 'H', 'H'];[[-0.91159, -0.235303, -0.033115], [0.434459, 0.512071, -0.01099], [1.50374, -0.23674, 0.509549], [-0.774582, -1.140039, -0.7734], [-1.725627, 0.380603, -0.235657], [-1.199344, -0.701666, 0.990579], [0.815554, 1.126234, -0.957029], [0.226587, 1.280459, 0.791675], [1.683367, -1.196336, 0.131092]];[-0.9512, -0.7634, -0.9177];[[47.17889852421468, -86.64606597041673, 0.5078492105401385], [0.47565654060508933, 35.548458134693966, 13.152415622425428], [25.78889473473222, -63.04006027477347, -8.22062855436324], [-20.657723714891663, 37.62961084239912, 26.073258180600597], [-34.20065155470587, 27.415136841146918, -26.015527668477493], [25.017040254154157, 16.933200901488558, -32.723822900914435], [-32.31030456928483, -34.656070873227875, 32.59647283479521], [17.408302477841048, -6.417683695442594, -18.47673198948681], [-28.70011387848588, 73.23347527995315, 13.106715264880606]];3;mc_amon00030_001_027;[6, 6, 8, 1, 1, 1, 1, 1, 1];9;CCO;-97234.49381760877
27;-742.6207139893426;['C', 'C', 'O', 'H', 'H', 'H', 'H', 'H', 'H'];[[-0.741297, -0.229058, -0.016783], [0.396525, 0.578698, 0.010641], [1.44252, -0.251348, 0.516922], [-0.748059, -0.890631, -1.027689], [-1.8607, 0.236555, -0.114494], [-0.811546, -0.968854, 0.903194], [0.553043, 0.767489, -1.197013], [0.385748, 1.373451, 0.647214], [1.036971, -1.401999, 0.22435]];[-1.7554, -0.6042, -0.7018];[[-181.1066345720088, -105.78190694644579, -22.53307599310301], [88.01537622937205, -33.593996176602815, -101.98993700321485], [-29.768484099079018, -113.7802035400214, -33.52863846346961], [3.8104177613456898, 22.975470253183637, 55.950257950020934], [63.68886447636892, -11.132090791432677, 9.364010257278512], [0.9559733579467613, 34.852421494753784, -37.75993257607607], [6.014293461422954, 19.37114344748963, 69.86228445065669], [-3.3377637196456966, 65.89212592114094, 31.137526362476454], [51.72795710427713, 121.19703633793468, 29.497503829609897]];3;mc_amon00030_001_028;[6, 6, 8, 1, 1, 1, 1, 1, 1];9;CCO;-97191.03740725876
28;-773.2808670564445;['C', 'C', 'O', 'H', 'H', 'H', 'H', 'H', 'H'];[[-0.902502, -0.21505, -0.077699], [0.416, 0.497738, 0.020293], [1.55482, -0.238582, 0.534146], [-0.846542, -0.898374, -1.052927], [-1.971379, 0.356331, 0.079859], [-1.007259, -0.878473, 0.921497], [0.510542, 0.81383, -1.081384], [0.325187, 1.55878, 0.579808], [1.400259, -1.249907, 0.279878]];[-1.5026, -0.8685, -0.7783];[[-61.6290850073152, -64.4753555461988, 52.09548218056193], [6.634040303946335, 80.17676348455596, -23.030946519485816], [-47.684812474797035, -53.593930723783735, -29.208372197289155], [-18.252138667951947, 28.50689382453875, 52.03908571712296], [68.95991494757011, -17.269620705743506, -28.04843168919586], [8.715061385514653, 16.8227760592526, -53.148281384913815], [23.50797505504872, -3.720983137561197, 30.15249564545763], [10.0699164858392, -61.13096545851137, -17.202595728210394], [9.679129157966228, 74.68442220345132, 16.351563975952526]];3;mc_amon00030_001_029;[6, 6, 8, 1, 1, 1, 1, 1, 1];9;CCO;-97221.69756032586
29;-782.0912506756171;['C', 'C', 'O', 'H', 'H', 'H', 'H', 'H', 'H'];[[-0.828755, -0.24484, -0.017959], [0.36781, 0.538173, -0.020223], [1.44098, -0.292214, 0.542689], [-0.783043, -1.149696, -0.541846], [-1.621275, 0.438759, -0.424902], [-0.971021, -0.504546, 0.982797], [0.709939, 1.024509, -1.010142], [0.462811, 1.304232, 0.762065], [2.01309, -0.692623, -0.313053]];[-0.3434, 0.1701, -1.6979];[[-57.84658977429428, 45.14295880160175, -22.0508452605825], [115.94441589753245, 27.610681104357077, 0.8044965766920392], [59.91640128945269, -37.43884899549395, -100.32367106463396], [5.349851837607326, -30.13354029593237, -31.447424093069728], [-1.1298621570949718, -22.80592748819308, 11.548360227904233], [-22.424610127245895, -9.220629076349656, 42.30691478347548], [-16.470520800661692, -18.42962999145785, 28.422719502943437], [-28.2101326195658, 11.799588276100769, -11.504999495296122], [-55.128954731550884, 33.47534647954627, 82.24444882256714]];3;mc_amon00030_001_030;[6, 6, 8, 1, 1, 1, 1, 1, 1];9;CCO;-97230.50794394503
30;-758.3429136631459;['C', 'C', 'O', 'H', 'H', 'H', 'H', 'H', 'H'];[[-0.900321, -0.201485, -0.045252], [0.371101, 0.499085, 0.070075], [1.509133, -0.278649, 0.529085], [-0.635799, -1.266675, -0.434197], [-1.700144, 0.232621, -0.7581], [-1.109007, -0.44715, 0.924859], [0.577075, 0.816814, -1.025035], [0.585762, 1.488169, 0.730729], [1.920262, -0.654836, -0.527074]];[-0.6524, 0.0227, -1.8315];[[-10.29518809701613, -54.35200833537311, -58.67307621658509], [94.764187409712, 93.6062521250186, -39.794946172446956], [23.158617943110286, -45.56094886442058, -130.77037247069626], [-8.375837114470386, 39.25728304900321, 0.2758397641425331], [27.74463500791804, -9.686204952186886, 39.17316801846052], [-51.96628104777965, -9.75089860553065, 63.5224831103045], [3.4864893960584666, 4.32489096828546, 36.15665033688115], [-41.349873000760354, -47.31004558934422, -31.708609480644654], [-37.16675049677227, 29.471680204548175, 121.8188619247632]];3;mc_amon00030_001_031;[6, 6, 8, 1, 1, 1, 1, 1, 1];9;CCO;-97206.75960693257
31;-793.2519578525195;['C', 'C', 'O', 'H', 'H', 'H', 'H', 'H', 'H'];[[-0.859515, -0.217074, -0.028709], [0.431642, 0.526242, -0.03441], [1.466689, -0.268633, 0.561996], [-0.909915, -0.944911, -0.88362], [-1.929049, 0.324137, -0.067675], [-0.769566, -0.84272, 0.930348], [0.69827, 0.826655, -1.096191], [0.241578, 1.397706, 0.679111], [1.706202, -0.913726, -0.121208]];[-0.6069, -0.351, -1.5854];[[-62.72776481401192, -48.95531300872628, 7.704105062823585], [2.0201540727611804, 38.920239502874615, 10.013975377684421], [-7.529939967370127, 8.0542827629304, -19.346579164385734], [1.597844063847857, 8.027652779552936, 15.03060675623662], [62.55751055638982, -14.455265354668663, 6.187601208255408], [-17.456704135743614, 17.885839730635507, -28.14452469819051], [-1.3095413204428605, 5.376798435205825, 29.431276909645167], [21.556954349652113, -15.181004440333506, -28.131518612885966], [1.2914883807386024, 0.3267684067081178, 7.255057160817014]];3;mc_amon00030_001_032;[6, 6, 8, 1, 1, 1, 1, 1, 1];9;CCO;-97241.66865112193