;atomization_energy;atomtypes;coordinates;dipole;forces;heavy;name;nuclear_charges;size;smiles;total_energy
0;-794.9185276343884;['C', 'C', 'O', 'H', 'H', 'H', 'H', 'H', 'H'];[[-0.830026, -0.211593, -0.045546], [0.412113, 0.499002, -0.017616], [1.460118, -0.247482, 0.547693], [-1.05435, -0.975366, -0.789316], [-1.76765, 0.38934, -0.072565], [-0.82666, -0.838728, 0.946515], [0.665265, 0.869119, -1.062401], [0.306276, 1.295464, 0.676893], [1.71025, -0.951427, -0.049043]];[-0.7116, -0.4714, -1.4355];[[-88.14785378572256, -72.60658742305122, 54.32744286644815], [50.29992973008297, 20.789485035326432, -41.94449229517988], [12.20092703969947, -1.0342814227950317, 4.455254205699252], [18.308446194811967, -2.2419879887067213, -14.743991436189424], [17.121358685362292, 3.2791640006910656, 6.501521243858979], [-10.429557037945486, 28.022957881344645, -33.889955766544226], [0.6634040303946336, 1.3915206872698738, 25.27696867141336], [-0.4267034759130787, 29.855799660642575, 7.090681018152484], [0.4100486192297957, -7.456070430721608, -7.073429693479761]];3;mc_amon00030_001_001;[6, 6, 8, 1, 1, 1, 1, 1, 1];9;CCO;-97243.33522090381
1;-770.2199988334179;['C', 'C', 'O', 'H', 'H', 'H', 'H', 'H', 'H'];[[-0.909206, -0.215382, -0.069749], [0.387745, 0.510697, 0.079005], [1.565705, -0.241324, 0.469004], [-0.652567, -1.358215, -0.483106], [-1.873263, 0.203223, -0.619745], [-1.291005, -0.364286, 0.987506], [0.837888, 1.119657, -0.790964], [0.172708, 1.262711, 0.708232], [1.446424, -1.248725, 0.060487]];[-1.6517, -0.5691, -0.7134];[[-40.906492137563994, -86.13044370287702, -6.390445385865164], [68.5919724622748, -5.533450139533944, -101.20794731010051], [-42.367468735524746, -89.00947491997985, -18.13207072891653], [-24.859289293710304, 66.01176459295534, 17.285835622816286], [59.96438553834475, -10.236287179514145, 14.257030463490226], [7.872760833666824, -5.1196555115990945, -23.54217769166787], [-35.98072548298568, -23.529024564552813, 4.897953221790388], [-1.1211368857901947, 61.012235125623235, 77.33437058051426], [8.805993701288537, 92.53433511365724, 35.49745004211786]];3;mc_amon00030_001_002;[6, 6, 8, 1, 1, 1, 1, 1, 1];9;CCO;-97218.63669210284
2;-785.498098757219;['C', 'C', 'O', 'H', 'H', 'H', 'H', 'H', 'H'];[[-0.841568, -0.259183, -0.057562], [0.397903, 0.578962, 0.062625], [1.467375, -0.284193, 0.473858], [-0.495304, -1.273087, -0.363959], [-1.733488, 0.165175, -0.701072], [-1.020227, -0.219877, 1.121153], [0.658307, 1.068494, -0.821757], [0.313142, 1.351022, 0.802559], [1.533088, -1.092036, -0.108076]];[-0.9707, -0.2699, -1.2984];[[-34.20941714392643, 14.387986611430303, 52.91292199404272], [26.290128249620096, -30.478733990155252, -8.89325590090473], [6.644341531429973, -12.213218074909312, -3.7229278840874045], [-21.220512014797162, 12.145876483155169, 0.569843935168265], [41.46833770973271, -20.185385101591653, 33.32764298088081], [-24.70977386047653, -27.653815345144153, -59.21461460322862], [13.94759045982325, 20.819805293819478, -45.6250436781328], [0.01151787988356909, 7.853110593004762, 15.450172775234309], [-8.222212811289468, 35.32437353039066, 15.195262752669553]];3;mc_amon00030_001_003;[6, 6, 8, 1, 1, 1, 1, 1, 1];9;CCO;-97233.91479202664
3;-797.3643650366506;['C', 'C', 'O', 'H', 'H', 'H', 'H', 'H', 'H'];[[-0.867722, -0.244569, -0.022767], [0.40956, 0.502977, 0.042931], [1.463365, -0.25734, 0.505673], [-0.710568, -1.150438, -0.629095], [-1.640758, 0.366152, -0.598038], [-1.172952, -0.429951, 0.98407], [0.66511, 0.904544, -0.916393], [0.475842, 1.404524, 0.732437], [1.863887, -0.791006, -0.263505]];[-0.3567, -0.1506, -1.6663];[[-27.879324120531592, 21.2435003417222, -36.14228292900827], [24.31861892807726, 50.79043749355039, 12.880359813261633], [53.74349358985962, -57.283719652736146, -24.99401635259754], [-2.7896001507814874, -1.5147298662735387, 10.722971855908094], [15.521029140588254, -15.148909007724768, 22.151440832113742], [-16.179111206098977, -15.049989001340803, 13.57934203269639], [1.235836612920649, 10.71998477267668, -25.271192537066312], [-23.414665168064445, -20.184304818612766, -14.165355823737439], [-24.55627762596929, 26.4277309245598, 41.23873192260865]];3;mc_amon00030_001_004;[6, 6, 8, 1, 1, 1, 1, 1, 1];9;CCO;-97245.78105830606
4;-796.6812594781236;['C', 'C', 'O', 'H', 'H', 'H', 'H', 'H', 'H'];[[-0.918595, -0.231023, -0.065898], [0.379557, 0.491776, 0.042619], [1.558327, -0.254696, 0.51256], [-0.799337, -1.179566, -0.619865], [-1.753183, 0.370034, -0.482256], [-1.335124, -0.391121, 1.013819], [0.675135, 0.946837, -0.938036], [0.364633, 1.379944, 0.788859], [1.801697, -0.912018, -0.117111]];[-1.0242, -0.3155, -1.5275];[[-38.454789324068955, -12.56583856638441, 55.585430616630724], [63.9630654358168, 49.04140243132148, 8.378717473807068], [-42.01397785139705, 28.21298214755512, 19.08648117471601], [-6.935511590140073, 6.0312874629272715, 7.031425540155784], [17.93245198456975, -1.7510343565235362, -9.696081655733702], [20.674179353638113, -11.097211050992515, -40.328347455027775], [-8.579248114543269, -5.469658896011181, 10.470521226206364], [-7.682708107751093, -33.99419418034895, -27.29666976053246], [1.096538213875775, -18.407736177364335, -23.231477160222013]];3;mc_amon00030_001_005;[6, 6, 8, 1, 1, 1, 1, 1, 1];9;CCO;-97245.09795274754
5;-800.0857926772688;['C', 'C', 'O', 'H', 'H', 'H', 'H', 'H', 'H'];[[-0.855098, -0.259667, -0.033096], [0.406472, 0.565266, 0.014218], [1.499676, -0.276548, 0.51348], [-0.689212, -1.229625, -0.598073], [-1.735661, 0.303412, -0.490447], [-1.18063, -0.486959, 0.997347], [0.668511, 1.107483, -0.964828], [0.317149, 1.341343, 0.745778], [1.423292, -1.000556, -0.124644]];[-1.3876, -0.2308, -1.2848];[[-33.32306926908106, -2.5975327148974467, -14.654738243025974], [32.85648307370705, -0.9274934937272945, -8.846724282802057], [-29.444842702486515, 17.295395712142074, -29.75171184611153], [-8.241095825730522, 23.31281499785959, 11.650662195930114], [26.36748528598421, -15.732541670092266, 5.491843236262577], [6.365341554182352, -5.251786808202261, -7.3993300791774], [-6.046767170947462, -24.439184911954758, 23.0526660178846], [-3.43819446205063, 14.841258408026112, 12.70103046712425], [14.904660702243634, -6.5009307049748015, 7.756302533915416]];3;mc_amon00030_001_006;[6, 6, 8, 1, 1, 1, 1, 1, 1];9;CCO;-97248.50248594668
6;-784.14694159246;['C', 'C', 'O', 'H', 'H', 'H', 'H', 'H', 'H'];[[-0.944304, -0.234427, -0.045475], [0.442549, 0.457219, -0.011421], [1.532254, -0.200817, 0.540671], [-1.205449, -0.881369, -0.956921], [-1.897098, 0.519234, -0.085422], [-1.019843, -0.917485, 0.851534], [0.838187, 0.930891, -0.881347], [0.366278, 1.330287, 0.573029], [1.790051, -1.132843, 0.125152]];[-0.6815, -0.7756, -1.1352];[[-49.80157894617389, -2.9245311708897623, -20.803528714051964], [-9.217296919191945, -2.945275924383344, -13.974406617105966], [35.99338886600603, -91.83354926040151, 5.256083037875706], [23.142260727511193, 15.156269398998043, 23.747872583087993], [58.64377339255515, -32.737025832513694, 13.263477250566611], [-2.459267165989358, 20.64803911435536, -16.765102466540025], [-13.79629036590536, -2.0908479806309277, -46.01109839418498], [-10.785635383609867, 23.68269985803899, 35.58432566407092], [-31.719355391023004, 73.04422179742686, 19.702378842102764]];3;mc_amon00030_001_007;[6, 6, 8, 1, 1, 1, 1, 1, 1];9;CCO;-97232.56363486187
7;-784.2291227432271;['C', 'C', 'O', 'H', 'H', 'H', 'H', 'H', 'H'];[[-0.803069, -0.250261, -0.034308], [0.448878, 0.550953, -0.002494], [1.420051, -0.235411, 0.503604], [-0.832958, -0.982271, -0.866457], [-1.780996, 0.3251, -0.091317], [-0.685162, -0.806577, 0.937824], [0.645128, 0.960876, -0.984546], [0.332225, 1.27399, 0.700766], [1.267259, -1.303285, 0.290631]];[-1.1911, -0.7988, -0.7319];[[-46.37594707235414, -17.378760117958482, 11.988557161574454], [-33.072224241084506, -30.813571909126075, -53.75827484927985], [60.779063574594126, -129.90742914596538, 3.8782597695840173], [4.4613635557620706, 4.637316869362798, 6.788491124400893], [26.16033776377469, -12.531225635681075, 6.223839899621812], [-25.224888596605737, 5.8168957599076325, -17.64255194020695], [11.323515512306228, 9.873996317355374, -11.746896317630018], [-8.9363201782497, 67.65708893174792, 43.15699432142814], [10.88509968185696, 102.64568774453623, 11.111580830507505]];3;mc_amon00030_001_008;[6, 6, 8, 1, 1, 1, 1, 1, 1];9;CCO;-97232.64581601265
8;-800.0187169345648;['C', 'C', 'O', 'H', 'H', 'H', 'H', 'H', 'H'];[[-0.861404, -0.253961, -0.036451], [0.426058, 0.566501, 0.034575], [1.487399, -0.264033, 0.504934], [-0.656547, -1.163487, -0.594403], [-1.734825, 0.235351, -0.45876], [-1.144912, -0.645151, 0.950121], [0.705902, 0.94849, -0.98164], [0.359466, 1.447118, 0.728147], [1.327993, -1.069624, -0.117774]];[-1.4264, -0.4144, -1.2627];[[1.2855414881599865, -5.211574430488712, 18.34728539174665], [5.761201302531787, 18.27446530672965, -0.5511636961272001], [-23.387451760729117, -44.553439723529316, -43.756694859057895], [-1.4083486738268312, -4.611250150985302, -14.550567421021249], [0.06839697249092777, 6.759496613844612, -5.312301628156786], [2.281638287241355, 8.41976348372057, 2.5994905054552326], [-8.870107488137597, -0.346419833191234, 12.877797253967037], [-0.8284110298591285, -17.813865136028987, -12.555942889700752], [25.09753971630757, 39.08282505574977, 42.902099714537066]];3;mc_amon00030_001_009;[6, 6, 8, 1, 1, 1, 1, 1, 1];9;CCO;-97248.43541020398
9;-804.3603859601027;['C', 'C', 'O', 'H', 'H', 'H', 'H', 'H', 'H'];[[-0.865282, -0.248695, -0.032592], [0.437668, 0.530951, 0.019979], [1.481487, -0.244131, 0.513644], [-0.801684, -1.059451, -0.735989], [-1.728383, 0.368594, -0.310774], [-1.133142, -0.75264, 0.921869], [0.67611, 0.90981, -1.005811], [0.355291, 1.399049, 0.693614], [1.473065, -1.065773, -0.030237]];[-1.1079, -0.5937, -1.2379];[[-17.90457095998183, -1.2762802257394494, 20.489567174711553], [-11.364433453546054, 15.798872942309625, -8.854636080864775], [13.029002482200724, -30.86340603886015, -8.476501463622675], [2.4224604663387757, -10.52652043959272, -17.706178354603402], [3.475732813290645, 1.5405855085036773, -2.3764672109939684], [9.225573950138854, 12.715879318344475, -4.074260573899418], [-4.1796053587461826, -0.35729736970641773, 11.159554407010095], [-0.32862303083433037, -3.958940662358471, -4.90644962963202], [5.624463091139401, 16.927106967099423, 14.745369360252505]];3;mc_amon00030_001_010;[6, 6, 8, 1, 1, 1, 1, 1, 1];9;CCO;-97252.77707922952
10;-805.1806406168054;['C', 'C', 'O', 'H', 'H', 'H', 'H', 'H', 'H'];[[-0.866624, -0.246979, -0.032863], [0.426117, 0.528787, 0.011798], [1.488353, -0.247541, 0.513074], [-0.811945, -1.104388, -0.716269], [-1.676553, 0.388726, -0.34105], [-1.139834, -0.667301, 0.933482], [0.635474, 0.978801, -0.980859], [0.327168, 1.345103, 0.741753], [1.543542, -1.079312, -0.004949]];[-1.0827, -0.5749, -1.2154];[[-1.865422212717166, -14.65208793297349, -0.3631861570534581], [-0.3355007929392104, 4.749416090924976, 8.427256686951734], [9.991346354538313, -17.529225393855366, -10.747326248685686], [1.0121362146383703, 3.0415491781779824, -4.547432819399382], [-13.362648651013721, 8.578169017385434, -8.257147099498049], [3.7379522368234097, 1.7481955009236942, 7.874582254803565], [2.318040621913012, -3.931120114644232, 5.758901995510862], [0.5180982618974626, 0.6302449163017434, -6.0843873438401035], [-2.0140020331404704, 17.364857551938204, 7.938738731210519]];3;mc_amon00030_001_011;[6, 6, 8, 1, 1, 1, 1, 1, 1];9;CCO;-97253.59733388622
11;-790.1412151765171;['C', 'C', 'O', 'H', 'H', 'H', 'H', 'H', 'H'];[[-0.898991, -0.228295, -0.043913], [0.413395, 0.490369, 0.061784], [1.519868, -0.250138, 0.513006], [-0.962623, -1.329053, -0.554531], [-1.584459, 0.424439, -0.647351], [-1.329098, -0.461069, 0.97134], [0.639916, 0.907166, -0.982281], [0.297529, 1.376772, 0.747946], [1.849245, -0.775382, -0.362682]];[-0.5985, -0.0734, -1.6253];[[-45.26094681051097, -61.65762890587151, -5.334860687860793], [15.548146496418322, 31.1578145748648, -31.79099914155585], [27.71382737697239, -47.6217730418216, -71.50438691364945], [19.585701165456626, 61.46311867861918, 17.719304207834252], [5.005543951710712, -13.199806960791213, 16.914226578826458], [4.483385438529265, 13.343464438025315, -19.12619550758748], [-4.158592609694721, -3.8619677741428196, 27.939728659128228], [2.3546919790057075, -18.521763543957984, -12.620768169181352], [-25.27175698788734, 38.898542535075826, 77.80395097404599]];3;mc_amon00030_001_012;[6, 6, 8, 1, 1, 1, 1, 1, 1];9;CCO;-97238.55790844593
12;-754.876770956321;['C', 'C', 'O', 'H', 'H', 'H', 'H', 'H', 'H'];[[-0.91079, -0.225214, -0.095292], [0.39777, 0.485733, 0.007659], [1.573634, -0.211396, 0.523304], [-0.877574, -1.039916, -0.90469], [-1.906556, 0.368387, -0.01163], [-0.862952, -0.764024, 0.920341], [0.665491, 0.99733, -0.916991], [0.408221, 1.367481, 0.72503], [1.035875, -1.37028, 0.356418]];[-2.1071, -0.64, -0.6345];[[-18.8219754881939, -47.05178206484282, 50.61847802525471], [47.85662134381904, 91.08489181125374, 20.179313697802517], [-104.92459864335669, -141.380767219158, -39.901125775314725], [-9.706672223554165, 30.422607893916272, 20.7391125428345], [45.091144350709904, -16.737319865099465, -17.57379922140025], [-16.91333602721598, 2.399093862497972, -28.666106902340406], [4.0328481452806715, -8.144763280883256, -14.45566734800548], [-22.47955158825336, -18.632306968299197, -12.875066308082978], [75.86552013076447, 108.04034820225685, 21.934860103431063]];3;mc_amon00030_001_013;[6, 6, 8, 1, 1, 1, 1, 1, 1];9;CCO;-97203.29346422573
13;-775.3467418244965;['C', 'C', 'O', 'H', 'H', 'H', 'H', 'H', 'H'];[[-0.872076, -0.244214, 0.018322], [0.476189, 0.516427, -0.064603], [1.404065, -0.266602, 0.578883], [-0.664864, -0.802785, -1.000584], [-1.740435, 0.494927, 0.070569], [-0.862639, -1.029045, 0.842786], [0.626418, 0.904465, -1.063782], [0.373135, 1.504357, 0.450037], [1.843693, -0.817067, -0.269028]];[0.044, -0.0563, -1.7508];[[19.355099288648415, -12.526893831376054, -47.20697876673944], [-65.47950644186919, 52.63746999338437, 54.45288020320959], [86.61050675451345, -58.03595709564162, -96.89009063229888], [-48.15515060798137, 9.117013218597531, 40.31630662806002], [18.056838683878613, -33.47855056803029, -10.959070013294946], [-2.7118719524279213, 30.85041655505034, -19.930176252121655], [17.934550887832792, -16.008073120761132, -18.70132649684272], [6.961478699549153, -14.552886887000067, 11.226632746490571], [-32.57194412632289, 41.99746173577693, 87.69182139771638]];3;mc_amon00030_001_014;[6, 6, 8, 1, 1, 1, 1, 1, 1];9;CCO;-97223.76343509392
14;-796.0477303055853;['C', 'C', 'O', 'H', 'H', 'H', 'H', 'H', 'H'];[[-0.908022, -0.241108, -0.0254], [0.45921, 0.466021, 0.004922], [1.492464, -0.226456, 0.546031], [-1.021065, -0.959239, -0.926114], [-1.724508, 0.573176, -0.20939], [-1.033657, -0.859132, 0.88365], [0.65816, 0.867657, -1.044326], [0.316262, 1.460128, 0.58161], [1.681471, -0.873591, -0.152838]];[-0.5251, -0.4797, -1.493];[[-21.399764282566128, -0.8407447546268625, -38.642963709437424], [-52.4286291187118, 86.13531031247675, -20.101113542670028], [25.237433397520824, -29.565278246048226, -6.890859498405717], [8.571182159743717, 21.57496341397742, 29.448084737244226], [27.39566091617958, -36.13914761814528, 17.003217705537292], [-8.113735087221825, 13.808456889904683, -4.5790622243344625], [2.1592247941639617, -13.835584918124225, 18.983608826763845], [8.228508335257537, -37.00352815799189, -9.33906413979569], [10.350117699813069, -4.134445735601329, 14.118153030919016]];3;mc_amon00030_001_015;[6, 6, 8, 1, 1, 1, 1, 1, 1];9;CCO;-97244.464423575
15;-785.4464641401453;['C', 'C', 'O', 'H', 'H', 'H', 'H', 'H', 'H'];[[-0.917604, -0.256727, -0.043375], [0.438593, 0.496632, 0.016873], [1.531451, -0.201894, 0.509955], [-1.009257, -1.075556, -0.870718], [-1.711394, 0.494661, -0.305049], [-1.050437, -0.783874, 0.898941], [0.821638, 0.953072, -0.9581], [0.344353, 1.310965, 0.774179], [1.282831, -1.239122, 0.146622]];[-1.5516, -0.8063, -0.8397];[[6.758761404792022, -6.198872437360044, -48.718984802055225], [1.316564938537206, 42.723396481915444, -11.56099515121932], [-21.112659218424223, -144.44166662527175, -26.39128115704604], [13.39724023693811, 31.371946583073928, 27.047538243956865], [9.838888899273119, -17.68028002281537, 15.502192373168253], [-10.298680340015933, 6.513521752910942, 7.26820554464786], [-30.940748845371626, -6.531731220994138, 16.435382551232074], [-8.734378410460947, -1.008264508901744, -17.500813121435893], [39.77501133473228, 95.25194999744272, 37.918756704572495]];3;mc_amon00030_001_016;[6, 6, 8, 1, 1, 1, 1, 1, 1];9;CCO;-97233.86315740956
16;-799.030804296556;['C', 'C', 'O', 'H', 'H', 'H', 'H', 'H', 'H'];[[-0.944884, -0.225257, -0.040467], [0.420701, 0.49399, 0.041823], [1.539638, -0.253914, 0.528686], [-0.769037, -1.097205, -0.68509], [-1.706516, 0.364141, -0.564173], [-1.238607, -0.531218, 0.97662], [0.579464, 0.868782, -0.958175], [0.351217, 1.341156, 0.652947], [1.840304, -0.826314, -0.276995]];[-0.6394, -0.1061, -1.7101];[[28.293334567898015, -14.085936644562914, 6.505608769027172], [-9.65848401344106, -19.476173989757466, -18.40375893355403], [-0.9543345532521157, -33.57222924536192, -61.47976167709194], [-6.761447289476082, -6.527426690573326, 6.966481678569927], [1.8150402336568139, 5.64971277881168, 9.526276824290528], [-7.42198281874456, -1.606247977647389, -10.836266385091259], [14.144507903812283, 6.204901151591287, -14.754172895746752], [-2.525790541217232, 31.634022522259333, 28.638761868868247], [-16.93084467505711, 31.779378095240716, 53.836829564907056]];3;mc_amon00030_001_017;[6, 6, 8, 1, 1, 1, 1, 1, 1];9;CCO;-97247.44749756597
17;-805.886501551392;['C', 'C', 'O', 'H', 'H', 'H', 'H', 'H', 'H'];[[-0.888128, -0.24477, -0.034992], [0.424914, 0.513618, 0.014822], [1.5031, -0.24564, 0.524986], [-0.842873, -1.057988, -0.782029], [-1.70081, 0.433858, -0.326349], [-1.138459, -0.674397, 0.947215], [0.658576, 0.889309, -0.998082], [0.328339, 1.37463, 0.699053], [1.604297, -0.98556, -0.093955]];[-0.9832, -0.431, -1.4015];[[-5.600700423067041, -6.218987519874713, -0.3279150956659487], [1.147347088515051, 10.955473418042514, 5.151448559839428], [-2.7294600502795734, -7.997330149417781, -8.492747212042822], [-1.4353853938253256, 3.3638660126547695, 5.407469696730434], [0.9996495189548552, -2.1008740976303693, -0.6884023240037677], [2.6126448183913418, 1.1910113913126195, -4.803163430132508], [-0.18391610196870495, 2.9959436863173647, 4.2777225642775605], [1.525948919251861, -4.129143929675308, -7.074304829416554], [3.6638716240275353, 1.9400400024498528, 6.549894442056284]];3;mc_amon00030_001_018;[6, 6, 8, 1, 1, 1, 1, 1, 1];9;CCO;-97254.30319482081
18;-780.7484306017213;['C', 'C', 'O', 'H', 'H', 'H', 'H', 'H', 'H'];[[-0.853712, -0.268111, -0.063933], [0.406006, 0.512486, 0.054703], [1.527905, -0.216628, 0.499757], [-0.982966, -0.935612, -0.902655], [-1.711822, 0.48035, -0.183704], [-1.207517, -0.696582, 0.939523], [0.653682, 0.828042, -1.031639], [0.351501, 1.451965, 0.642185], [1.277518, -1.306009, 0.1832]];[-1.7419, -0.756, -0.8055];[[-81.90809661011217, 35.4284388143217, 58.241259480293344], [36.56465104315316, 18.27799549600314, -62.88196305458227], [-28.458468450215133, -121.89422203847478, -18.691482996285377], [12.132240726871718, -13.697211459500354, -3.101485317458855], [23.430148433547792, -14.133725232981304, -6.777243611717307], [21.318089671749625, -4.071318551868003, -30.432619781063085], [-9.89716014579619, 2.2435651307066333, 30.160960036130845], [-5.265778310801483, -15.08481063654939, -0.3247110071819166], [32.08437482742372, 112.93128729252132, 33.80728506604356]];3;mc_amon00030_001_019;[6, 6, 8, 1, 1, 1, 1, 1, 1];9;CCO;-97229.16512387113