;atomization_energy;atomtypes;coordinates;dipole;forces;heavy;name;nuclear_charges;size;smiles;total_energy
0;-644.9483599285023;['C', 'C', 'O', 'H', 'H', 'H', 'H'];[[-0.945217, -0.145816, -0.086762], [0.310566, 0.431883, -0.247145], [1.549893, -0.044236, 0.343934], [-1.141072, -0.778312, 0.733896], [-1.665124, 0.180332, -0.741888], [0.625354, 1.011078, -1.0865], [1.504147, -0.916154, 0.876714]];[-0.7429, -0.98, 0.2002];[[117.8347249366798, 46.47122897974883, 9.092052871262078], [0.2812056044053921, -102.28757215830355, 31.875832779656392], [-41.33771952079262, -10.049437356261393, 8.750813890249503], [-8.821243360024528, -20.01143582556976, 16.516460694059138], [-46.65261572541241, 15.65594118755969, -28.82709515425776], [-4.496546866391689, 19.458648740421598, -6.953072414107516], [-16.807806254285016, 50.76262761822563, -30.45499385268289]];3;mc_amon00016_001_001;[6, 6, 8, 1, 1, 1, 1];7;C=CO;-96465.09298865015
1;-638.6768545412939;['C', 'C', 'O', 'H', 'H', 'H', 'H'];[[-0.892473, -0.120678, -0.076053], [0.331296, 0.315827, -0.254521], [1.535325, 0.021954, 0.352049], [-1.474536, -0.933548, 0.642542], [-1.682323, 0.48636, -0.529334], [0.570042, 1.05815, -1.092887], [1.320507, -0.975655, 0.581601]];[-0.8158, -1.1052, -0.1];[[-87.23399723409979, -39.34305229991423, 45.20050906892486], [54.69386987243828, 49.89436351443188, -35.654585561435425], [-47.76555028698201, -95.8444680169571, 3.9607431103583712], [58.44043117010331, 46.290329606537846, -35.949716262461095], [8.26996938253944, -8.323739252346972, -12.328162081176595], [-19.082082964432043, -15.280583763222698, 32.85134728272838], [32.67736124625386, 62.60715139729232, 1.9198644430615026]];3;mc_amon00016_001_002;[6, 6, 8, 1, 1, 1, 1];7;C=CO;-96458.82148326295
2;-661.5209391063536;['C', 'C', 'O', 'H', 'H', 'H', 'H'];[[-0.879511, -0.121434, -0.064773], [0.344263, 0.366368, -0.269756], [1.495954, -0.030309, 0.33024], [-1.098898, -0.941994, 0.613384], [-1.71791, 0.296593, -0.619837], [0.531366, 1.18297, -0.955809], [1.300801, -0.730022, 0.97325]];[-0.5728, -0.6553, 0.5411];[[-3.141207951077696, 2.910102100322145, -6.263952668366946], [-2.4293927762120737, -4.330675403379875, 7.316550283139905], [-1.0393401354052765, -1.4428999418354334, 1.1862206742602546], [2.224399890855069, 0.369969053474133, 1.089398385318278], [3.3476759978240924, -1.569763821323105, 2.697812858028704], [1.6580529419708199, 0.7914347577980297, -1.88001136912688], [-0.620187967954935, 3.271834440765158, -4.1460169774322635]];3;mc_amon00016_001_003;[6, 6, 8, 1, 1, 1, 1];7;C=CO;-96481.66556782801
3;-641.3807903553201;['C', 'C', 'O', 'H', 'H', 'H', 'H'];[[-0.92118, -0.143295, -0.068305], [0.381249, 0.322141, -0.30406], [1.528399, 0.005736, 0.344734], [-1.425317, -0.864419, 0.610219], [-1.731689, 0.4337, -0.402786], [0.535119, 1.353042, -0.870084], [1.228958, -0.81078, 0.887839]];[-0.6666, -0.6096, 0.6908];[[58.10192669243795, 11.694071547201382, 8.31278345164232], [-68.54975248951926, 52.12670484887598, 11.678468513791724], [-32.56591422627059, -65.65926149776445, 18.463824327329633], [39.20523024807979, -5.551363152353999, -3.8706349402160214], [-15.068287406002941, 25.508172945316275, -32.36482269217653], [-10.248212981839798, -59.53508630014761, 19.372133608068523], [29.12501016311485, 41.41676279469347, -21.59175226843965]];3;mc_amon00016_001_004;[6, 6, 8, 1, 1, 1, 1];7;C=CO;-96461.52541907696
4;-646.3840940752248;['C', 'C', 'O', 'H', 'H', 'H', 'H'];[[-0.820046, -0.163044, -0.064317], [0.370805, 0.437932, -0.256365], [1.41539, -0.043765, 0.319498], [-1.075857, -0.782386, 0.816518], [-1.630518, 0.230885, -0.610785], [0.583677, 1.077633, -1.088166], [1.38354, -0.909042, 0.874627]];[0.0705, -0.7922, 0.533];[[-1.1865645623654986, 26.764328601972636, 14.34582237226423], [-80.07671101906679, -64.3327000877541, -8.490847526716612], [114.67145004163493, -44.41815058546317, 64.15648589352182], [11.345138959199762, 2.4808585957144715, -15.730653842976581], [-27.360833351865733, 5.695677574451225, -13.366858315750328], [3.783697655568231, 16.757319922972037, -3.354920178634215], [-21.176176537283844, 57.05266597810691, -37.55902840170832]];3;mc_amon00016_001_005;[6, 6, 8, 1, 1, 1, 1];7;C=CO;-96466.52872279688
5;-645.650348502127;['C', 'C', 'O', 'H', 'H', 'H', 'H'];[[-0.911308, -0.0931, -0.064955], [0.306223, 0.355512, -0.262138], [1.547506, -0.019018, 0.343765], [-1.27646, -0.866189, 0.728018], [-1.685411, 0.047784, -0.867718], [0.57453, 1.212186, -0.937832], [1.445281, -0.975963, 0.791075]];[-0.7102, -1.192, 0.031];[[-62.078764951942794, -53.52474636611391, 7.684055200466807], [83.4521755474367, 19.105399763788636, 4.516334662295851], [-55.07576472823806, -58.69759899595214, 20.142797524309813], [28.75414462892498, 30.332747560373907, -33.14600246951197], [16.999259434863824, 13.747541262434392, 25.343257254072824], [-13.13573586350004, -26.049947310349264, 8.186722373007234], [1.0846859324553826, 75.08660408581838, -32.72716454464056]];3;mc_amon00016_001_006;[6, 6, 8, 1, 1, 1, 1];7;C=CO;-96465.79497722378
6;-660.7528913553767;['C', 'C', 'O', 'H', 'H', 'H', 'H'];[[-0.890103, -0.120752, -0.063065], [0.33134, 0.376591, -0.268179], [1.508989, -0.037575, 0.331061], [-1.077834, -0.950249, 0.585644], [-1.716034, 0.26965, -0.659355], [0.557472, 1.167142, -0.965734], [1.318485, -0.699974, 1.003879]];[-0.6727, -0.6424, 0.51];[[5.95511861925783, 15.270594406675887, -19.553292676090013], [17.578885207894707, -17.862119752121036, 16.439914759294975], [-17.769730062273553, 11.91436033831543, -10.713652488255983], [-3.08103939087052, -9.430717434769534, 10.525824362634863], [2.8331648446106406, -1.7720720078171017, 6.235305603379068], [-1.8061453899415199, 4.5926695209126525, -3.4977487669525766], [-3.7102526428565317, -2.7127138853752433, 0.5636492059896627]];3;mc_amon00016_001_007;[6, 6, 8, 1, 1, 1, 1];7;C=CO;-96480.89752007702
7;-652.9321774007076;['C', 'C', 'O', 'H', 'H', 'H', 'H'];[[-0.918332, -0.08688, -0.092026], [0.313329, 0.294684, -0.265061], [1.542295, -0.012289, 0.337439], [-1.053213, -0.98122, 0.596508], [-1.71434, 0.433195, -0.62686], [0.457474, 1.193297, -0.802651], [1.418902, -0.685464, 0.997297]];[-0.7258, -0.6303, 0.6596];[[-20.810274850020008, -61.16503884063579, 36.037344880782534], [65.15579389601353, 36.483638120483995, 18.961741100733484], [-37.946142055960436, 7.258742692648387, -28.113925771750104], [-15.045810167951563, 26.470298342883748, -22.531126503292594], [1.1041274686121947, -10.668331593447979, 7.134289587360581], [12.108759098388813, 17.821951249786434, -24.147576099455204], [-4.566453389082533, -16.20125878589774, 12.659253991442366]];3;mc_amon00016_001_008;[6, 6, 8, 1, 1, 1, 1];7;C=CO;-96473.07680612235
8;-646.9313293998789;['C', 'C', 'O', 'H', 'H', 'H', 'H'];[[-0.855404, -0.139376, -0.024576], [0.313259, 0.435064, -0.262553], [1.492383, -0.061285, 0.31229], [-1.083655, -1.004948, 0.488721], [-1.590073, 0.218785, -0.836999], [0.58657, 1.110836, -1.050695], [1.201095, -0.621896, 1.140821]];[-0.7642, -0.5452, 0.4227];[[-35.74578112948298, 74.09821868104184, -97.9036023993582], [51.61780737252537, -60.346231775481385, 28.949914198135126], [-34.62991047498723, -10.830257829817908, 52.163907612758116], [-5.103761952031557, -36.546992981859404, 33.64873130474713], [10.674184806163444, -15.069799327844963, 42.30357195392829], [-7.7378618307269695, 13.43128634517832, -2.027623559571291], [20.92532320853992, 35.263775702962455, -57.13490029646023]];3;mc_amon00016_001_009;[6, 6, 8, 1, 1, 1, 1];7;C=CO;-96467.07595812152
9;-653.6918585678668;['C', 'C', 'O', 'H', 'H', 'H', 'H'];[[-0.930156, -0.111558, -0.068411], [0.36681, 0.361531, -0.242401], [1.512835, -0.012972, 0.335115], [-1.200194, -0.92628, 0.617675], [-1.817612, 0.206554, -0.72345], [0.620934, 1.051576, -1.010305], [1.497307, -0.866956, 0.796186]];[-0.0672, -1.1815, 0.214];[[24.97864336847208, 15.385821824174732, -23.190651713024288], [-77.97037621548935, -39.53911713856647, -0.05059186938665619], [19.847326492642058, -10.799737167566978, 14.485698266161704], [9.597611075528661, 8.441831613508818, -0.5403217342435934], [41.49615232834169, -2.5156671868914797, 22.09776582799041], [-5.196014086636946, 21.362637411231354, -11.482270863181597], [-12.753341777037129, 7.664230644110017, -1.3196279143159828]];3;mc_amon00016_001_010;[6, 6, 8, 1, 1, 1, 1];7;C=CO;-96473.83648728952
10;-649.3993687148478;['C', 'C', 'O', 'H', 'H', 'H', 'H'];[[-0.843743, -0.141202, -0.073966], [0.322354, 0.402726, -0.345442], [1.485755, -0.037308, 0.384332], [-1.050634, -0.876118, 0.788505], [-1.787494, 0.324261, -0.32127], [0.58244, 1.213904, -1.063224], [1.330562, -0.96694, 0.72413]];[-0.9285, -0.6951, 0.0197];[[-48.51363972784562, -12.605321664150633, 45.108318597014204], [64.73480370593172, -17.972934729483285, 35.41399077061725], [-29.38418914146884, -12.351827511922647, -29.60620211639332], [23.193955410476736, 21.003356162903994, -33.2346663096123], [-0.14546941180242504, 0.5650887927474771, -22.01706003297386], [-8.552965576734206, -16.917850447963097, 17.331532422897954], [-1.3324952585573715, 38.27948939786818, -12.995914517370986]];3;mc_amon00016_001_011;[6, 6, 8, 1, 1, 1, 1];7;C=CO;-96469.5439974365
11;-640.7014837391383;['C', 'C', 'O', 'H', 'H', 'H', 'H'];[[-0.960678, -0.092655, -0.040463], [0.32716, 0.352311, -0.293097], [1.565155, -0.003718, 0.371428], [-1.169818, -1.067428, 0.530404], [-1.790274, 0.283479, -0.806117], [0.599029, 1.047614, -1.054043], [1.496922, -1.014785, 0.712866]];[-0.5559, -1.4065, -0.4062];[[21.752560275557006, -6.567985328034224, -49.690819702401114], [-4.48945209903419, -47.635993407883966, 50.41764974343431], [-60.0974322888005, -71.79968362962248, -3.1964482389904085], [5.737572632238367, 43.749411546153034, -12.324871427755724], [42.78659362909087, -19.75795827483651, 45.73825757148439], [-5.001278553384633, 19.10251940445196, -6.848180612902831], [-0.6885635956669167, 82.90968850395113, -24.09558851868968]];3;mc_amon00016_001_012;[6, 6, 8, 1, 1, 1, 1];7;C=CO;-96460.84611246079
12;-641.947477846174;['C', 'C', 'O', 'H', 'H', 'H', 'H'];[[-0.913009, -0.181173, -0.085065], [0.346312, 0.388786, -0.263215], [1.526729, -0.032517, 0.327526], [-1.240256, -0.907329, 0.562461], [-1.677039, 0.702863, -0.455638], [0.490916, 1.086865, -1.010396], [1.282465, -0.557655, 1.097407]];[-0.5333, -0.1814, 1.0382];[[30.315809292459058, 156.0426666355204, -65.63614865962889], [-39.35235269442949, -96.20657270521062, 58.30396925501618], [-22.019717457952655, 12.623021229181226, -17.48761018983663], [-12.347278702365005, -39.17978371411279, 37.44514807692518], [30.81885829937842, -70.35829916709223, 15.088585104959707], [11.861867597781512, 40.67706778106098, -28.01455989665038], [0.7228124793071146, -3.598097687704883, 0.30061749503588997]];3;mc_amon00016_001_013;[6, 6, 8, 1, 1, 1, 1];7;C=CO;-96462.09210656783
13;-660.9907136809934;['C', 'C', 'O', 'H', 'H', 'H', 'H'];[[-0.889346, -0.123675, -0.076957], [0.338791, 0.366145, -0.261117], [1.505149, -0.028674, 0.332983], [-1.073254, -0.872799, 0.687712], [-1.699048, 0.288203, -0.64115], [0.511657, 1.169918, -0.958989], [1.305905, -0.783706, 0.910846]];[-0.6122, -0.6852, 0.4713];[[21.327567939422778, -0.2758136760793766, 11.878824838833198], [1.6728009984015775, -5.6282992222444514, 2.2568190526111587], [-14.480504369951467, -1.2897973999176442, -0.5039027980772005], [-4.948616240440198, -3.5118398785202127, -3.19276982208535], [-11.047346089911082, 2.3076848466609574, -3.5173183717830656], [5.445557083117786, 3.6281748528821556, -4.416819373743499], [2.0305418651816547, 4.769891663039624, -2.5048323399341887]];3;mc_amon00016_001_014;[6, 6, 8, 1, 1, 1, 1];7;C=CO;-96481.13534240265
14;-658.5509493154384;['C', 'C', 'O', 'H', 'H', 'H', 'H'];[[-0.905976, -0.128161, -0.089302], [0.334389, 0.368349, -0.245554], [1.522496, -0.037342, 0.323893], [-1.115805, -0.891598, 0.719593], [-1.679396, 0.322559, -0.683361], [0.470372, 1.212407, -0.95079], [1.316375, -0.677832, 1.015587]];[-0.6686, -0.4539, 0.7158];[[29.481188117747642, -12.862821519894187, 34.613850900472336], [-0.5580865194320777, 2.7373457602791342, -10.785216788778312], [-25.053378554488972, 12.785682674603747, -6.549940689077335], [-0.5070250649086055, 17.691118427235825, -29.12652564242003], [-11.264292051477947, -1.508201921379165, 1.899545399325792], [7.830163769816565, -15.693458194020758, 9.71992140217448], [0.0714279311012853, -3.149666412645646, 0.22836541830307167]];3;mc_amon00016_001_015;[6, 6, 8, 1, 1, 1, 1];7;C=CO;-96478.69557803709
15;-659.3168183535369;['C', 'C', 'O', 'H', 'H', 'H', 'H'];[[-0.871337, -0.111952, -0.052904], [0.334508, 0.373296, -0.286482], [1.483, -0.029096, 0.345823], [-0.970985, -0.936857, 0.602038], [-1.74656, 0.230316, -0.623702], [0.62288, 1.127206, -0.993562], [1.362114, -0.847171, 0.8463]];[-0.5107, -0.9612, 0.162];[[-15.702922231841281, 15.149915769798396, -28.818973465868737], [28.093805945951228, -10.618010091261308, 14.989528729154697], [1.6618689141179759, 1.750552913176195, -6.582344435159741], [-9.15946679810043, -17.256289705470564, 18.974486305406458], [10.446505978249807, -3.688646983278787, 8.3049167147796], [-7.907321588243847, 11.410472955911912, -6.532420183025679], [-7.43247022013345, 3.252005141124157, -0.3351948511076486]];3;mc_amon00016_001_016;[6, 6, 8, 1, 1, 1, 1];7;C=CO;-96479.46144707518
16;-660.7541030761623;['C', 'C', 'O', 'H', 'H', 'H', 'H'];[[-0.862483, -0.122361, -0.066923], [0.344114, 0.362878, -0.265672], [1.48146, -0.024652, 0.329655], [-1.042305, -0.8979, 0.68106], [-1.709672, 0.290575, -0.62243], [0.551695, 1.16913, -0.956758], [1.244471, -0.796902, 0.886586]];[-0.5666, -0.7134, 0.4248];[[-26.5310123807751, -4.5186375267799335, 2.3509032807427612], [11.098549842960862, 16.9936528729273, -12.004980783152487], [4.061631579689595, -22.673797377410967, 17.737074922128002], [-2.7651188751512716, 1.0557269965306797, -4.80902968687955], [5.623118370065792, -5.559823985564054, 6.222405056148207], [-1.7176677237464475, 2.5171779229124485, -3.9846219888938834], [10.23049800113552, 12.185701097384529, -5.511749614271995]];3;mc_amon00016_001_017;[6, 6, 8, 1, 1, 1, 1];7;C=CO;-96480.89873179782
17;-647.9213548622903;['C', 'C', 'O', 'H', 'H', 'H', 'H'];[[-0.827773, -0.151365, -0.053397], [0.35987, 0.434348, -0.278823], [1.441408, -0.040473, 0.338903], [-1.099339, -0.839025, 0.849176], [-1.668363, 0.195845, -0.673152], [0.543283, 1.132115, -1.122623], [1.31279, -0.996247, 0.766323]];[-0.3448, -0.9457, 0.1223];[[-35.21738638338609, 10.106521595910845, 13.389433976949071], [-34.17696715082298, -48.89907900277152, -5.132659225261527], [46.59402667884726, -51.85021762643874, 37.42884778073662], [20.28525969392293, 27.00520798984343, -43.3514535583752], [3.7421844321600166, -6.449410337703986, 10.864043057426553], [2.048786907896428, -7.057895437691152, 20.737279263487235], [-3.2759053644386156, 77.14487163303008, -33.935491294962745]];3;mc_amon00016_001_018;[6, 6, 8, 1, 1, 1, 1];7;C=CO;-96468.06598358393
18;-637.4812776829673;['C', 'C', 'O', 'H', 'H', 'H', 'H'];[[-0.827506, -0.070081, -0.051102], [0.36748, 0.33647, -0.344726], [1.43884, -0.030097, 0.3729], [-0.75152, -0.970225, 0.686161], [-1.941081, 0.064071, -0.478672], [0.471912, 1.366065, -0.916418], [1.343543, -0.958858, 0.776434]];[-0.5096, -1.0542, 0.0657];[[-109.27550415389332, -88.38914346767756, 22.18804831382749], [11.768002746544632, 102.13961370811178, -19.99960370310726], [33.64384097872635, -42.2380292527109, 8.661187163454496], [-18.097320242971094, 32.72936187105097, -24.62337968187081], [74.5574243261847, 4.948548648640203, 16.85444696792452], [11.893800572906049, -57.37193050919439, 19.05189314625478], [-4.490245413318356, 48.181579001779895, -22.132593392304265]];3;mc_amon00016_001_019;[6, 6, 8, 1, 1, 1, 1];7;C=CO;-96457.62590640462
19;-637.6754843350994;['C', 'C', 'O', 'H', 'H', 'H', 'H'];[[-0.854846, -0.117185, -0.068753], [0.384492, 0.389128, -0.226182], [1.446636, -0.048337, 0.287956], [-0.948029, -1.129876, 0.528399], [-1.762163, 0.22654, -0.535591], [0.55711, 1.137495, -1.024931], [1.11407, -0.491871, 1.269905]];[-0.2166, -0.2084, 0.9704];[[11.2830825718769, -51.21145377169537, 32.95650352202779], [-121.6071217176171, 35.49098613156033, -85.88941490155361], [67.42202955360312, -73.12327930118035, 158.2583341401444], [1.2531970331302085, 50.36472299239516, -19.867604032640926], [1.382794230144044, 6.969290888643455, -4.806212176058654], [0.08479450600580406, -1.2039273542171631, 14.831129124595098], [40.18122382285702, 32.713660414493944, -95.48273567651408]];3;mc_amon00016_001_020;[6, 6, 8, 1, 1, 1, 1];7;C=CO;-96457.82011305675
20;-660.0222042634459;['C', 'C', 'O', 'H', 'H', 'H', 'H'];[[-0.888758, -0.131236, -0.076809], [0.344177, 0.36684, -0.242891], [1.503346, -0.028155, 0.319903], [-1.114425, -0.903905, 0.633843], [-1.663876, 0.349706, -0.631167], [0.513319, 1.125948, -0.974753], [1.245461, -0.684537, 0.961215]];[-0.599, -0.5496, 0.6091];[[27.553998858044448, 12.581619472951953, 4.0115306402187], [-14.90617855319092, -9.910252796037566, -9.69093993564978], [-3.122991368068184, 5.948000135479278, -1.0458277623838623], [-5.245548203644714, -8.421985712373079, 5.487812630504906], [-14.753921501683608, 0.4172702694399198, -4.878257919928327], [4.742960481114809, 14.000295462325578, -8.368843141902355], [5.73168147324922, -14.614946831786083, 14.484526674961769]];3;mc_amon00016_001_021;[6, 6, 8, 1, 1, 1, 1];7;C=CO;-96480.1668329851
21;-640.4869840581573;['C', 'C', 'O', 'H', 'H', 'H', 'H'];[[-0.926021, -0.084884, -0.079933], [0.326722, 0.343918, -0.246077], [1.557464, -0.02548, 0.335227], [-1.254176, -1.16796, 0.42009], [-1.872223, 0.216026, -0.508663], [0.619991, 1.107325, -1.059208], [1.307244, -0.59295, 1.019137]];[-0.8989, -0.6595, 0.4148];[[-21.550499925662997, -98.3750018423846, 37.9894114803475], [43.89876689354472, 37.391348561591336, -44.439688653240914], [-45.81566085486955, 31.654119817458216, -52.10710915598233], [37.475473078702436, 67.6403000772857, -10.789312614693873], [13.576344277075505, 23.397074698570687, -16.82371404370518], [-21.741982751768123, -19.404735386266708, 36.774400256752], [-5.842439531200946, -42.303103554612534, 49.39601273052279]];3;mc_amon00016_001_022;[6, 6, 8, 1, 1, 1, 1];7;C=CO;-96460.6316127798
22;-636.3426184440019;['C', 'C', 'O', 'H', 'H', 'H', 'H'];[[-0.801794, -0.143087, -0.100277], [0.331132, 0.380395, -0.24325], [1.43097, -0.049691, 0.299595], [-0.831005, -0.80206, 0.933476], [-1.639758, 0.27435, -0.535192], [0.62607, 1.297637, -0.870329], [1.06247, -0.629106, 1.036001]];[-0.6653, 0.047, 0.8683];[[-77.89984595092487, -80.29069361382331, 105.31534328167176], [98.06562943051762, 111.36282668853497, -83.99347558404867], [31.26108535869063, -39.80153815167816, 76.39718299968223], [-16.363821808172897, 23.571586053771494, -69.23870503449142], [-45.83046464488978, 10.607400550304003, -13.887577242173961], [-23.3475536255945, -35.3637036572411, 8.504501070315852], [34.114971240373805, 9.914122130132087, -23.097269490955803]];3;mc_amon00016_001_023;[6, 6, 8, 1, 1, 1, 1];7;C=CO;-96456.48724716566
23;-646.880641694593;['C', 'C', 'O', 'H', 'H', 'H', 'H'];[[-0.810725, -0.09876, -0.036259], [0.329555, 0.364509, -0.295853], [1.430857, -0.031714, 0.346604], [-0.758696, -1.039434, 0.557729], [-1.593099, 0.307709, -0.555279], [0.534876, 1.122949, -1.094008], [1.242496, -0.827372, 0.806945]];[-0.5332, -0.9047, -0.051];[[-51.87278617271117, -78.81489306688444, 40.36222754832062], [101.5492408388815, 65.86855179861595, -41.395848468789374], [45.1772586755472, 24.118473679183143, -21.15867144690587], [-28.786517543660022, 19.495431723651127, -1.9693819585745345], [-58.75401798999111, 6.309871216985441, -22.46085356189651], [-1.3454835565461218, -9.454665090926095, 25.2592584339933], [-5.96769543734134, -27.522770260625133, 21.36326826803132]];3;mc_amon00016_001_024;[6, 6, 8, 1, 1, 1, 1];7;C=CO;-96467.02527041624