;atomization_energy;atomtypes;coordinates;dipole;forces;heavy;name;nuclear_charges;size;smiles;total_energy
27;-500.1042634208632;['C', 'O', 'H', 'H', 'H', 'H'];[[-0.395229, -0.008332, 0.042758], [1.007856, -0.160447, 0.437908], [-0.440547, 1.053801, -0.248238], [-0.644288, -0.631782, -0.920819], [-0.983059, -0.326334, 0.874236], [1.619999, -0.03445, -0.331001]];[-0.5386, 0.3964, -1.6313];[[65.46647308268045, -3.525057039972108, -66.29109185681348], [-5.93431931799583, -11.230106016353536, -14.156140808337952], [-25.17739764927154, -4.269545142299068, 7.63850544219566], [6.450757430419701, 19.649832739621477, 41.38394994034794], [-12.538312102291208, 1.3160479205582876, 13.062538687388328], [-28.26720144354157, -1.9411724615550527, 18.362238595219498]];2;mc_amon00005_001_028;[6, 8, 1, 1, 1, 1];6;CO;-72581.41903563372
28;-481.0623503760089;['C', 'O', 'H', 'H', 'H', 'H'];[[-0.288512, -0.0214, 0.004084], [0.948498, -0.175507, 0.431132], [-0.751533, 1.159824, -0.034565], [-0.683923, -0.746324, -0.722346], [-0.973643, -0.134436, 0.992623], [1.622727, 0.118217, -0.284328]];[0.1855, 0.4232, -1.4193];[[-149.78572098375307, 72.17146224602283, 73.55228208411435], [115.04202267802482, 12.08939938388463, -28.850580340203823], [40.23096664437004, -60.64560771587524, -31.380371841652405], [3.183149255885886, 12.73917714456423, -8.640333314424078], [31.310826994382598, -19.235028977970895, -44.08562976082905], [-39.98124340308921, -17.11940208062556, 39.40463198717396]];2;mc_amon00005_001_029;[6, 8, 1, 1, 1, 1];6;CO;-72562.37712258886
29;-458.0957044255199;['C', 'O', 'H', 'H', 'H', 'H'];[[-0.392158, -0.02029, 0.01481], [0.988509, -0.111497, 0.441804], [-0.483588, 1.217365, 0.028707], [-0.682764, -0.588764, -0.859862], [-0.851492, -0.548433, 0.844528], [1.837087, -0.620928, -0.360427]];[-0.4076, -0.7673, -1.5671];[[49.01523136069137, 60.4109266146462, 29.981290359351377], [97.71720081646332, -60.57469798857393, -83.08513191449924], [-23.100821025008237, -79.5407542921177, -11.61812919535298], [3.1173705762790234, 11.382224326797695, -18.103229189276032], [-23.386567138223903, 13.945311311760218, 6.795412761884717], [-103.36241577602263, 54.3769900274875, 76.02978717789216]];2;mc_amon00005_001_030;[6, 8, 1, 1, 1, 1];6;CO;-72539.41047663838
30;-472.55002308936736;['C', 'O', 'H', 'H', 'H', 'H'];[[-0.422687, -0.01798, 0.02638], [1.039025, -0.125511, 0.461788], [-0.546909, 0.978538, -0.089906], [-0.516063, -0.382591, -1.081261], [-1.026289, -0.385546, 0.891491], [1.46647, -0.585292, -0.533452]];[-1.0492, -0.3431, -1.835];[[67.58856744804648, -59.6210986443744, -6.422883520758094], [-2.2825822007991974, -58.89970203540405, -132.55308722246014], [-21.180661312504643, 83.19333571390375, -0.7882128819982093], [-12.283906053673794, -7.6618424005101495, 55.59411201255656], [1.9167338754827297, -6.6997478342900445, -30.212396210106927], [-33.758150570730514, 49.68905520067489, 114.3824654511247]];2;mc_amon00005_001_031;[6, 8, 1, 1, 1, 1];6;CO;-72553.86479530223
31;-500.5560639671718;['C', 'O', 'H', 'H', 'H', 'H'];[[-0.347227, 0.009942, 0.026978], [0.992813, -0.199743, 0.438163], [-0.728968, 1.009975, -0.317396], [-0.702221, -0.71373, -0.804823], [-0.928443, -0.188053, 0.932671], [1.577993, 0.29398, -0.248314]];[-0.3519, 1.057, -1.3827];[[-33.76433937080385, -22.949149769100895, -13.729363811519613], [25.780891628448455, 49.406098138574855, -57.64434087885291], [27.535599658592844, -5.668428592484322, 6.334672664299849], [15.77697557075295, 17.71312252268723, 27.509568514846922], [-4.7236588718422, -6.038858930347903, -3.6387642348815654], [-30.605469800969246, -32.46278218350791, 41.16822893192837]];2;mc_amon00005_001_032;[6, 8, 1, 1, 1, 1];6;CO;-72581.87083618004