;atomization_energy;atomtypes;coordinates;dipole;forces;heavy;name;nuclear_charges;size;smiles;total_energy
27;-555.0288826784488;['C', 'C', 'H', 'H', 'H', 'H'];[[0.652882, -0.166532, 0.151142], [-0.648024, 0.16234, -0.147379], [1.147125, -1.083301, -0.193019], [1.258872, 0.642268, 0.580057], [-1.092849, 1.049714, 0.10108], [-1.354618, -0.557042, -0.547731]];[-0.0373, 0.059, -0.0454];[[-47.92241662492065, 34.44358597046076, -23.173596048825235], [66.26883043819366, -79.82878073921745, 3.6485875764810185], [-7.682129427077441, 5.298139367325995, 9.184147291667477], [2.456372576800045, -12.698215327945459, -0.8149792347967186], [-17.431838654092367, 58.28846820221703, 18.408837805122168], [4.31118169109675, -5.503198658661944, -7.252996203827654]];2;mc_amon00011_001_028;[6, 6, 1, 1, 1, 1];6;C=C;-49289.23272479158
28;-541.6177133623254;['C', 'C', 'H', 'H', 'H', 'H'];[[0.629691, -0.177139, 0.157928], [-0.631872, 0.155714, -0.151762], [1.20144, -1.078894, -0.142768], [1.018991, 0.726618, 0.381192], [-0.901627, 1.152352, 0.309882], [-1.26377, -0.597722, -0.621896]];[0.0513, 0.0544, -0.1217];[[-39.153281799409, -37.19295002710764, -48.21368747842021], [10.741423231486014, -16.482788119450483, 25.330012818736726], [-11.669194207339608, 16.522954250142984, 8.654641431244332], [72.48396641128964, 50.968417375329956, 40.21366907267626], [-15.619951518614325, -28.83750547727823, -30.02504004126473], [-16.782962117412715, 15.021873184184475, 4.040404197027618]];2;mc_amon00011_001_029;[6, 6, 1, 1, 1, 1];6;C=C;-49275.82155547546
29;-545.0593140481195;['C', 'C', 'H', 'H', 'H', 'H'];[[0.636639, -0.189253, 0.153969], [-0.653234, 0.161398, -0.160698], [1.292051, -1.024567, -0.144208], [1.134915, 0.705581, 0.478332], [-0.969294, 1.187633, 0.263518], [-1.241812, -0.575705, -0.524882]];[0.0619, 0.0212, -0.0545];[[-31.893693616350138, 44.64695238591358, -30.37284609926641], [93.24043344522843, 40.81404789994809, 68.66031844446047], [-22.138076628851326, 1.4419548424565387, 5.058271484813038], [24.59056919916738, -1.4494895494245401, 16.363635634267645], [-1.187785958049641, -44.823976495924775, -27.567001385885828], [-62.61144644114471, -40.62948789714785, -32.14237689256787]];2;mc_amon00011_001_030;[6, 6, 1, 1, 1, 1];6;C=C;-49279.26315616125
30;-538.6772413033214;['C', 'C', 'H', 'H', 'H', 'H'];[[0.626306, -0.172452, 0.12316], [-0.622266, 0.161798, -0.163503], [1.166806, -1.15656, 0.055855], [1.114573, 0.708542, 0.557742], [-1.070803, 1.187298, 0.450847], [-1.258787, -0.657941, -0.550312]];[0.0893, -0.2149, 0.3464];[[23.72195409234207, 21.93039311552605, 16.667623232734925], [-43.18781262476326, 15.672055309843001, 48.32869789066644], [-17.1961258885476, 27.65857048756494, -10.531596939518751], [20.895878085983664, -19.600086360645303, 4.896240896190483], [24.56378387323203, -70.44697723704519, -61.93990174922422], [-8.797677538246894, 24.786044684756494, 2.5789378549721667]];2;mc_amon00011_001_031;[6, 6, 1, 1, 1, 1];6;C=C;-49272.881083416454
31;-553.1043880539216;['C', 'C', 'H', 'H', 'H', 'H'];[[0.641495, -0.125465, 0.113413], [-0.628452, 0.127467, -0.124402], [1.054952, -1.168011, 0.047757], [1.314182, 0.542344, 0.651801], [-1.082348, 1.073345, 0.155344], [-1.435008, -0.486923, -0.70969]];[-0.0708, 0.0316, 0.1543];[[21.86769757065586, -48.49101307634161, 20.037034144631495], [-60.66225308599011, -0.6744191221519149, -32.68296069326407], [-7.406978624966448, 24.424508004787153, -13.995612654988996], [-7.62727334518576, 5.684873558841301, -2.963640735024427], [6.4148104510322295, 8.098762910612132, -0.3652257692638709], [47.41399703445422, 10.957288910073991, 29.970404522088824]];2;mc_amon00011_001_032;[6, 6, 1, 1, 1, 1];6;C=C;-49287.30823016706