;atomization_energy;atomtypes;coordinates;dipole;forces;heavy;name;nuclear_charges;size;smiles;total_energy
24;-650.0036910864129;['C', 'C', 'O', 'H', 'H', 'H', 'H'];[[-0.820869, -0.107286, -0.029584], [0.340746, 0.399689, -0.26517], [1.438973, -0.034723, 0.324394], [-0.891817, -1.009467, 0.657617], [-1.608107, 0.086381, -0.751295], [0.652263, 1.040745, -1.024357], [1.109012, -0.82611, 0.75733]];[-0.4972, -0.9563, -0.1768];[[-65.05865617867158, -49.05415237927867, 3.062534653345235], [37.59562639685364, 3.0598096365664396, -11.072765349993876], [33.114032733934806, -15.697967871483664, 26.044475932012723], [-6.972674036106424, 30.377206363276695, -16.41256854000176], [-8.415818257078687, 1.396951747690624, 11.707074075042764], [-7.778631544335224, 39.28237383665444, -29.784740519888633], [17.51611969958241, -9.364220147604817, 16.455988563662505]];3;mc_amon00016_001_025;[6, 6, 8, 1, 1, 1, 1];7;C=CO;-96470.14831980807
25;-657.5474167115999;['C', 'C', 'O', 'H', 'H', 'H', 'H'];[[-0.906698, -0.128815, -0.087303], [0.337509, 0.380609, -0.238155], [1.501863, -0.031566, 0.330379], [-1.041896, -0.862318, 0.722523], [-1.699766, 0.276996, -0.658974], [0.611323, 1.107554, -1.05122], [1.436257, -0.811496, 0.887462]];[-0.3403, -0.8401, 0.4674];[[55.19530023362088, 2.8744705493346556, 28.194770307829817], [-4.167813554199471, -9.36597397694156, -32.71411339813602], [4.2865166132033865, 12.602719972761305, -1.8596935112122222], [-9.784969616012964, 4.652195366109337, -12.450439204832943], [-19.58010527590957, 3.704512083141062, -7.70052032578168], [-12.780036980572481, -11.55543957958805, 23.837353453893538], [-13.168891420129775, -2.912484414816749, 2.6926438640605714]];3;mc_amon00016_001_026;[6, 6, 8, 1, 1, 1, 1];7;C=CO;-96477.69204543324
26;-651.5047420667828;['C', 'C', 'O', 'H', 'H', 'H', 'H'];[[-0.824472, -0.084123, -0.043472], [0.36342, 0.324092, -0.308977], [1.444609, -0.007651, 0.347415], [-0.981745, -0.990276, 0.60944], [-1.732787, 0.196403, -0.518017], [0.509297, 1.190646, -0.874283], [1.218428, -0.888513, 0.735395]];[-0.5157, -0.977, 0.0293];[[-72.53345783873951, -80.4287967052472, 29.91754773449177], [7.087393922194773, 50.35229203030111, -1.7123149275151663], [42.27125477278273, -55.976884375935235, 23.326065362300955], [6.206953807833279, 22.063263178644966, -8.308149262968893], [-9.021527349981795, 14.629443494153698, -14.531816032717028], [9.377285523961984, 28.659404641751305, -30.248436869357555], [16.612097161948544, 20.701278922152397, 1.5571039957659154]];3;mc_amon00016_001_027;[6, 6, 8, 1, 1, 1, 1];7;C=CO;-96471.64937078844
27;-651.769009524187;['C', 'C', 'O', 'H', 'H', 'H', 'H'];[[-0.824864, -0.141283, -0.083229], [0.356727, 0.41349, -0.281972], [1.437975, -0.050954, 0.343979], [-0.889042, -0.857403, 0.732302], [-1.723487, 0.299725, -0.391449], [0.457754, 1.088614, -1.086867], [1.291807, -0.78495, 0.867999]];[-0.4351, -0.5232, 0.4465];[[0.8719318483093362, -6.4756406993867355, 35.26419311197296], [-25.38741841589142, -41.47599337044807, 6.37483879499235], [59.752318044588144, 72.9356918972329, -47.87612691431269], [-7.160037319874938, -5.893918394734922, -1.3346083916730433], [-27.44674964458726, 8.469469544780962, -21.15078929436947], [23.064320267189213, 26.915455566016846, -10.107810583394985], [-23.694365965554127, -54.47506335763993, 38.830303276784875]];3;mc_amon00016_001_028;[6, 6, 8, 1, 1, 1, 1];7;C=CO;-96471.91363824584
28;-642.0445974875012;['C', 'C', 'O', 'H', 'H', 'H', 'H'];[[-0.810655, -0.142953, -0.047857], [0.328817, 0.360862, -0.329126], [1.435129, -0.011434, 0.352965], [-0.998868, -0.901381, 0.749307], [-1.660127, 0.532184, -0.488146], [0.680135, 1.175258, -0.918811], [1.37068, -0.97141, 0.791254]];[-0.3343, -0.8067, 0.3061];[[-132.02244060218445, 22.747834114827896, -11.587852812238877], [87.35275602669316, -0.7032855640345179, 35.961171293828876], [42.54515809114642, -80.674120550423, 31.123926180824583], [2.580460449203661, 16.589849973181366, -21.047339451564707], [23.335610035953056, -49.00478427721826, 19.25620892779077], [-18.254143891351838, 16.175426860088656, -20.541495464424454], [-5.537401295281092, 74.86907825775681, -33.16461748839515]];3;mc_amon00016_001_029;[6, 6, 8, 1, 1, 1, 1];7;C=CO;-96462.18922620914
29;-655.3554275994185;['C', 'C', 'O', 'H', 'H', 'H', 'H'];[[-0.883729, -0.113988, -0.051918], [0.374832, 0.369607, -0.304963], [1.476475, -0.039275, 0.332378], [-0.97056, -1.046333, 0.532678], [-1.856655, 0.233184, -0.511611], [0.589583, 1.259497, -0.862217], [1.269944, -0.63151, 1.11392]];[-0.4212, -0.4604, 0.7638];[[11.696394570643356, 1.6288105948145537, -21.61857198318552], [-68.49228404384878, -9.628910822211129, 30.787559738516997], [19.667990031578363, -26.815913003580288, 32.65214831903421], [0.11901374411968785, 11.975396919533082, -1.4078601155531743], [36.49398915245183, -3.3476961567819856, 9.101739843440487], [-0.7901362837454705, 5.948883572163439, -14.645835098563312], [1.3050340146220587, 20.239428896062325, -34.86918070368969]];3;mc_amon00016_001_030;[6, 6, 8, 1, 1, 1, 1];7;C=CO;-96475.50005632106
30;-660.575344452263;['C', 'C', 'O', 'H', 'H', 'H', 'H'];[[-0.860577, -0.132281, -0.071393], [0.336479, 0.386403, -0.258514], [1.478994, -0.0408, 0.321464], [-1.028166, -0.920573, 0.655699], [-1.688215, 0.29435, -0.593657], [0.578507, 1.164992, -0.993271], [1.267231, -0.696456, 1.019942]];[-0.5887, -0.5166, 0.6586];[[-7.720819210559497, 0.5508684266851113, 7.688523374192874], [22.381796058143017, 1.7059695990628883, -14.142178951265043], [6.55426419263499, -8.131267451484007, 18.49125592573863], [-2.988704248791452, -1.559684342376298, -0.7884298872508286], [-13.662047122007573, 1.3136217306847382, -5.070486627475517], [-7.0162956493461, -4.340663574105634, 7.389685796556885], [2.451805979926615, 10.461156797354253, -13.568369630497]];3;mc_amon00016_001_031;[6, 6, 8, 1, 1, 1, 1];7;C=CO;-96480.71997317391
31;-638.4816457565356;['C', 'C', 'O', 'H', 'H', 'H', 'H'];[[-0.883989, -0.135674, -0.058679], [0.357657, 0.399973, -0.365949], [1.493324, -0.032538, 0.386022], [-1.060416, -0.887082, 0.850014], [-1.800825, 0.214326, -0.453498], [0.545673, 1.343964, -0.970203], [1.346355, -1.058064, 0.754685]];[-0.7678, -0.7765, 0.0213];[[54.14402362350047, -9.362921673552258, 37.68047782226997], [-28.542450668799926, -29.130798155672423, 62.51860732511829], [-31.470190671457928, -65.81240791506119, -7.816941865080458], [20.03900735086296, 33.99355265115951, -51.80278715597823], [-15.64104846096052, 10.640339101681116, -18.304359855464828], [-1.7214860675357082, -38.22923311583941, 14.706183903570476], [3.192146080211701, 97.90146792146359, -36.98118017443523]];3;mc_amon00016_001_032;[6, 6, 8, 1, 1, 1, 1];7;C=CO;-96458.62627447819