;atomization_energy;atomtypes;coordinates;dipole;forces;heavy;name;nuclear_charges;size;smiles;total_energy
0;-681.448472606139;['C', 'C', 'H', 'H', 'H', 'H', 'H', 'H'];[[0.706287, 0.045368, -0.007031], [-0.733061, -0.009188, 0.055175], [1.203052, -0.984981, 0.297197], [1.252386, 0.88267, 0.47108], [1.163388, -0.044266, -1.101776], [-1.102911, 0.467126, -0.926778], [-1.322718, 0.460446, 0.975244], [-0.876953, -1.160256, -0.310294]];[0.0297, 0.0473, -0.1445];[[135.39191080513362, -48.11552284004673, -29.757203383405958], [-83.25304417554253, -31.061694291985944, -60.73347587004929], [-19.31175041425083, 48.88928174923522, 13.41296896737934], [-8.495707021390025, -8.847509296338856, -1.1111854755170647], [-32.58920968084825, 19.79319257577139, 38.920349784232506], [-1.446755046077324, 1.003435845575697, 39.861813435780064], [31.57424409717845, -37.732363422424974, -43.531433920270445], [-21.869687378382064, 56.071182051856304, 42.938167647671904]];2;mc_amon00007_001_001;[6, 6, 1, 1, 1, 1, 1, 1];8;CC;-50043.92437926704
1;-682.7155048467926;['C', 'C', 'H', 'H', 'H', 'H', 'H', 'H'];[[0.799355, 0.002505, -0.020211], [-0.826041, -0.058592, -0.032896], [1.20104, -0.701977, 0.643346], [1.107464, 1.014239, 0.515263], [1.266191, 0.193946, -1.034633], [-1.05426, 0.766216, -0.567659], [-0.920106, 0.417081, 1.056203], [-1.26422, -1.065951, 0.042931]];[-0.0083, 0.0867, 0.1471];[[-26.09713350167295, 88.96700118151905, -17.152694006676334], [97.74929269160891, -10.216916792620488, 141.66641490922632], [23.16043817842597, -38.522572041254655, 6.399757638590962], [-19.41697661699234, -38.64411988496367, -21.160980240495217], [-7.863252920467354, -29.471293626885043, 22.730414403565707], [-48.5838901386417, 43.07105549810661, -66.52343333310579], [-15.595699106447254, -30.642724740977698, -41.440054691807966], [-3.352779771634334, 15.459570407075889, -24.519424679297657]];2;mc_amon00007_001_002;[6, 6, 1, 1, 1, 1, 1, 1];8;CC;-50045.191411507694
2;-688.9687585561895;['C', 'C', 'H', 'H', 'H', 'H', 'H', 'H'];[[0.709671, 0.03504, -0.040947], [-0.72989, -0.025326, 0.025541], [1.03998, -0.910149, 0.668465], [1.123667, 0.949288, 0.576097], [1.221596, 0.01966, -1.029638], [-1.153881, 0.511074, -0.89794], [-0.8916, 0.320984, 1.089277], [-1.08146, -1.005122, -0.243336]];[-0.0402, -0.0503, -0.0776];[[109.00904779173975, -21.219897759491932, 68.96038216106481], [-44.61471109731538, 30.700660400142887, -34.29624889050054], [1.2688961180451237, 49.55910700062949, -46.1140193608003], [-14.559340125168127, -34.15935059326607, -33.733534111500305], [-8.897215357399245, -6.128397906385021, 14.408557049229158], [-1.3651741151239725, 11.474833393539907, 45.70653448668615], [-33.27378417449433, -8.345440963429974, -33.66753249753556], [-7.56771785446276, -21.881513571739298, 18.73586116335659]];2;mc_amon00007_001_003;[6, 6, 1, 1, 1, 1, 1, 1];8;CC;-50051.444665217095
3;-692.4129170961021;['C', 'C', 'H', 'H', 'H', 'H', 'H', 'H'];[[0.790137, 0.024809, -0.040806], [-0.761968, -0.06442, 0.042548], [1.289642, -0.782684, 0.52268], [1.115979, 0.913714, 0.611705], [1.085664, 0.093843, -1.007697], [-1.144741, 0.67075, -0.799896], [-1.41329, 0.526255, 0.863717], [-1.293406, -0.970759, -0.161361]];[0.0723, 0.046, -0.1104];[[-35.64931695849887, 10.484022984710874, 136.02025366446705], [-53.022836933226074, 105.13792310742902, -21.03097630686035], [-4.58298492037635, -5.409182022330338, -14.961650076208882], [-9.013281150382255, -16.981929846001634, -33.87417604579774], [28.730357058610515, 5.2466486455814945, -69.23345659051277], [17.08442984614329, -35.34437121662112, 20.814529575956616], [51.700211263289205, -39.411676950047244, -17.63706040291252], [4.753421794440542, -23.72143470272104, -0.0974626323103617]];2;mc_amon00007_001_004;[6, 6, 1, 1, 1, 1, 1, 1];8;CC;-50054.888823757006
4;-687.5501057193651;['C', 'C', 'H', 'H', 'H', 'H', 'H', 'H'];[[0.788351, -0.011169, -0.039295], [-0.762367, -0.026385, 0.023025], [1.088692, -0.512078, 1.005318], [0.954747, 1.154797, 0.083149], [1.291933, -0.222402, -0.936429], [-1.353993, 0.910961, -0.50043], [-1.086161, -0.050228, 1.159752], [-1.225624, -0.856294, -0.58956]];[0.0566, 0.0128, -0.0598];[[-35.091060866656285, 80.32946047567378, 102.17352937603621], [-56.71125623886277, 18.485370695854748, -17.80024005213501], [6.3089225601433885, 18.466724845624206, -66.29432084753961], [10.516233441961713, -50.53687930698557, 3.883106220225853], [13.174599962676826, -27.891968530415102, -25.593158368511542], [43.38869545435208, -42.36785412736682, 33.291205071577565], [7.803195827439119, -2.1951101108567004, -57.10317484001988], [10.610669858945927, 5.710257244292519, 27.44305225454536]];2;mc_amon00007_001_005;[6, 6, 1, 1, 1, 1, 1, 1];8;CC;-50050.026012380265
5;-695.4671401820256;['C', 'C', 'H', 'H', 'H', 'H', 'H', 'H'];[[0.803042, 0.050274, -0.0113], [-0.800545, -0.039705, 0.015562], [1.149412, -0.983895, 0.500267], [1.316347, 0.928404, 0.529539], [1.024197, -0.006532, -1.122151], [-1.235581, 0.69864, -0.792891], [-1.282977, 0.402872, 0.904422], [-0.992175, -1.154646, -0.073977]];[-0.0467, 0.0302, 0.0212];[[-11.36306264440929, -41.56313580213796, 15.557708957386213], [16.512796507006705, 35.27231598618303, -16.295389261050396], [-6.154793097194077, 57.89701207127042, -26.716988253912117], [-22.30879572832603, -28.573424314692936, -23.67422598079736], [10.99586841219816, 4.609323191774883, 32.09348074728637], [16.063839913221187, -48.40579997550425, 20.42253508225213], [10.530851058076687, -16.189426663435242, 5.979667486688041], [-14.276704420573342, 36.953134320721, -7.366787592031845]];2;mc_amon00007_001_006;[6, 6, 1, 1, 1, 1, 1, 1];8;CC;-50057.94304684293
6;-679.2639841774704;['C', 'C', 'H', 'H', 'H', 'H', 'H', 'H'];[[0.731016, 0.0428, -0.03844], [-0.710688, -0.033118, 0.031448], [1.056584, -0.490444, 0.952144], [1.005545, 0.937546, 0.100241], [1.320555, -0.425887, -0.939464], [-1.208681, 0.780116, -0.497144], [-1.044274, -0.160186, 1.084373], [-1.378935, -0.772972, -0.629907]];[-0.0168, 0.2309, 0.0142];[[38.29520508427784, -208.3370726692923, 0.4188225091977281], [-118.68276486242206, -34.485299597626856, -46.57260007824845], [6.140897646100115, 12.479419485536592, -46.13602464207276], [57.102736086230436, 170.56731319415363, 17.049889250524163], [-31.50001881421416, 18.802820920731808, 37.16923123441423], [3.307862055984204, 28.64048368103657, 19.173564315353264], [-5.835808419875, 10.09289769783792, -18.007832257239237], [51.17189240973968, 2.2394384734437054, 36.90494848225]];2;mc_amon00007_001_007;[6, 6, 1, 1, 1, 1, 1, 1];8;CC;-50041.73989083838
7;-692.2616321547554;['C', 'C', 'H', 'H', 'H', 'H', 'H', 'H'];[[0.740559, 0.033552, -0.018608], [-0.751978, -0.056895, 0.019506], [1.275286, -0.655703, 0.68909], [1.022363, 1.044399, 0.169426], [1.024567, -0.277661, -0.912429], [-0.87378, 1.000339, -0.507104], [-1.213791, 0.163608, 0.999455], [-1.108435, -1.008568, -0.420106]];[0.1008, 0.0124, -0.0576];[[-1.6477398562766574, -22.60474583169902, 117.89859444439205], [-9.559904337699182, 67.79580034937177, -5.971110601972728], [-8.762988714996194, 14.101768541435716, -4.75254310104059], [17.397317031610083, 17.24973685833409, 4.120762546475776], [38.90468627394917, -23.628041808263088, -105.30676742381961], [-34.125968544815294, -60.28965862470558, -0.3308025699289458], [6.687702264038084, -14.508935615507779, -2.978577337002542], [-8.89310411581, 21.884076131033893, -2.679554771282353]];2;mc_amon00007_001_008;[6, 6, 1, 1, 1, 1, 1, 1];8;CC;-50054.73753881566
8;-696.4507591492011;['C', 'C', 'H', 'H', 'H', 'H', 'H', 'H'];[[0.73002, 0.023237, -0.015501], [-0.75227, -0.04308, 0.000613], [1.201178, -0.829964, 0.635274], [1.11533, 0.886711, 0.563878], [1.058357, 0.156834, -1.108921], [-1.057759, 0.703498, -0.804203], [-0.931341, 0.428922, 0.966451], [-1.109148, -1.123402, -0.07213]];[0.0183, 0.1213, 0.1234];[[66.6600458474666, -16.975219284665165, 1.7378195667137462], [-9.567809020835583, 13.89773735695234, -3.713610888077397], [-12.404174396467099, 22.435524424213707, -44.56999852870734], [-7.305294469708953, 3.097522303501181, -14.488967574803626], [10.42414969394579, -19.632652564211906, 40.00218500287752], [-13.586487790359149, -32.35280913909299, 20.679322259543092], [-32.16905075132428, -10.025971143452173, 4.3881651938293045], [-2.051379112717336, 39.55586923257606, -4.034916217196346]];2;mc_amon00007_001_009;[6, 6, 1, 1, 1, 1, 1, 1];8;CC;-50058.926665810104
9;-671.4472080957623;['C', 'C', 'H', 'H', 'H', 'H', 'H', 'H'];[[0.722509, -0.022787, -0.051535], [-0.758221, -0.002205, 0.035733], [1.277292, -0.69485, 0.585299], [0.756744, 1.080123, 0.659032], [1.369826, 0.017163, -1.045003], [-0.983946, 0.654725, -0.887163], [-0.888032, 0.289684, 1.054802], [-1.095987, -1.0615, -0.186455]];[0.0317, -0.1871, 0.0168];[[78.2064447273499, 100.80162691225996, 33.27006069638927], [2.2238757579498354, -57.20354273390904, -87.48501894943318], [-4.135834332053883, -15.986310932804448, 9.748870851530762], [41.39522591273678, -59.038363648543694, -60.74270748694352], [-44.93000905698203, 6.766323385644232, 40.72809010348972], [-21.47866881540384, -12.218101286003776, 49.27608116090842], [-38.27214205062649, 9.503274267512863, 6.826085209230377], [-13.008893328791316, 27.375094035843883, 8.37853722900708]];2;mc_amon00007_001_010;[6, 6, 1, 1, 1, 1, 1, 1];8;CC;-50033.92311475667
10;-680.7430087595358;['C', 'C', 'H', 'H', 'H', 'H', 'H', 'H'];[[0.786378, 0.05512, -0.03717], [-0.798131, -0.045076, 0.016413], [1.177597, -0.845604, 0.484272], [1.177793, 0.992593, 0.529533], [1.586155, -0.150384, -0.967299], [-1.247123, 0.677519, -0.690597], [-1.078125, 0.314941, 1.021311], [-1.466047, -1.122618, -0.162867]];[-0.0038, 0.0417, 0.2543];[[56.4011059283853, -32.80653510515193, -5.23210099290862], [-22.93912128045935, -25.823627433361864, -25.81429146421502], [-7.756368939894358, 14.16782944645309, 17.13697239116142], [-19.40211235009843, -35.890993218116996, -24.157745700802007], [-71.3418962264585, 28.394064137208193, 29.82926572877037], [1.818781499077658, -6.690708320406338, 3.894383378435751], [1.0147248619961209, -6.89315287632138, -5.314305665735622], [62.204888879093666, 65.54312336969724, 9.657823511114781]];2;mc_amon00007_001_011;[6, 6, 1, 1, 1, 1, 1, 1];8;CC;-50043.21891542044
11;-686.5581167798138;['C', 'C', 'H', 'H', 'H', 'H', 'H', 'H'];[[0.702338, 0.038108, -0.017124], [-0.719789, -0.066058, 0.027952], [1.301851, -0.726461, 0.465978], [1.057265, 0.816783, 0.472216], [1.143871, -0.011, -1.062485], [-0.897955, 0.769715, -0.690151], [-1.248964, 0.516988, 0.910276], [-1.158653, -1.039944, -0.201909]];[0.083, 0.1625, -0.0028];[[77.46330134609656, -104.66190607722393, -52.60082100793379], [-83.11922901304472, 75.96616432095887, 13.851855568786474], [-5.747305851437823, -22.822077185107972, 10.162034622665649], [35.79152061912254, 106.32314057707879, 43.22007407231936], [-16.223746696338594, 10.016260454852715, 20.70436442853117], [-30.411423229748472, -26.977768090687068, -13.41458286983188], [27.48330020689049, -46.43971222781374, -19.34235171233334], [-5.236418567361012, 8.595899413763394, -2.5805731022036547]];2;mc_amon00007_001_012;[6, 6, 1, 1, 1, 1, 1, 1];8;CC;-50049.03402344072
12;-692.1368342628015;['C', 'C', 'H', 'H', 'H', 'H', 'H', 'H'];[[0.754352, 0.023706, -0.024551], [-0.738045, -0.053509, 0.025095], [0.916873, -0.590072, 0.902832], [0.948813, 1.157418, 0.012249], [1.232081, -0.250558, -0.95971], [-1.026646, 0.939471, -0.44038], [-0.988825, -0.025002, 1.035606], [-1.293574, -0.890579, -0.538268]];[-0.0503, 0.0558, 0.0053];[[2.0597664250221324, 20.614479192746703, 21.932250111294366], [-40.063974580463544, 27.323197763299405, -92.34848612337284], [45.69635302712882, 17.371749543895714, -24.521254401181764], [11.678313171233837, -40.318405531323066, 21.30901102577118], [2.9926269448333387, -19.332093174407593, 1.46242211382382], [-19.908351215649184, -28.523112299074686, 9.510920441659804], [-26.45568547005298, -0.9553602884625849, 40.61340816367506], [24.00095169794758, 23.819545979147158, 22.04172985415143]];2;mc_amon00007_001_013;[6, 6, 1, 1, 1, 1, 1, 1];8;CC;-50054.6127409237
13;-708.3333850398816;['C', 'C', 'H', 'H', 'H', 'H', 'H', 'H'];[[0.783451, 0.02786, -0.019303], [-0.778688, -0.013991, 0.024517], [1.203195, -0.831438, 0.526385], [1.169362, 0.994188, 0.51763], [1.059578, -0.112614, -1.080585], [-1.203496, 0.603944, -0.790637], [-1.244156, 0.253104, 0.974848], [-1.036254, -1.063933, -0.214551]];[-0.0431, -0.1114, -0.0236];[[-12.746783000795388, 26.511242372186732, 27.116116647068832], [14.797556158954864, -16.945535812077345, -20.446066515219243], [-1.963637841395907, 5.1830222311850385, 0.4043673505669542], [-8.258086269771681, -37.43033835779969, -34.86716362207928], [8.786724109184346, 14.19476774330422, 11.173270799125122], [2.664622912588447, -1.7467499850606172, 11.12568498610672], [4.228750526448708, 1.5212696693784376, 1.8129045699411435], [-7.509146595213389, 8.712320953062175, 3.680885784489746]];2;mc_amon00007_001_014;[6, 6, 1, 1, 1, 1, 1, 1];8;CC;-50070.80929170078
14;-704.0850777524196;['C', 'C', 'H', 'H', 'H', 'H', 'H', 'H'];[[0.757586, 0.021197, -0.029979], [-0.741482, -0.038164, 0.015709], [1.104533, -0.714041, 0.640196], [1.061981, 0.921804, 0.554928], [1.093645, 0.059041, -1.064371], [-1.107314, 0.625477, -0.743963], [-1.076858, 0.338278, 0.971206], [-1.273992, -1.053631, -0.174802]];[0.0207, 0.1082, 0.0808];[[-12.39058132974154, 32.55577071298695, 20.396903560200926], [-34.87072227105803, -28.93603060525169, -10.101077491458517], [27.98068691828384, -39.83923421711817, 0.6824340866462053], [-0.9712538480301208, 0.5170132356343651, -23.325499725658883], [16.527501873879572, -9.338844762900967, 5.250291487854976], [-15.335685310072263, 12.481585980599629, -10.171487988096702], [-10.360805504959842, 0.06904798824878625, 9.877635602165698], [29.420859471698375, 32.490690481980046, 7.3908016541673485]];2;mc_amon00007_001_015;[6, 6, 1, 1, 1, 1, 1, 1];8;CC;-50066.56098441332
15;-707.0863589307708;['C', 'C', 'H', 'H', 'H', 'H', 'H', 'H'];[[0.756835, 0.03553, -0.015505], [-0.758942, -0.031677, 0.022152], [1.211851, -0.667893, 0.732322], [1.257453, 1.045773, 0.136411], [1.113758, -0.317397, -0.965485], [-1.180353, 0.869107, -0.507906], [-1.302049, 0.051517, 1.015159], [-1.076933, -1.019392, -0.484388]];[0.0387, -0.0096, -0.0665];[[29.772564509320894, 5.062919903339095, 36.67171882598931], [-37.72957674295145, 4.418302835880258, -8.165970504587337], [-7.573304257441396, 13.40459351328507, -9.718247022848258], [-22.47061286915912, -22.532976384134596, 0.8807199681298995], [3.2266760034413573, -3.524314715993202, -17.485971385141983], [5.258336097875581, -24.889489784277046, -2.9985513068119563], [26.680686714029925, -10.022554792999733, -15.791178149499528], [2.8352305448842094, 38.0835206107212, 16.607479574769854]];2;mc_amon00007_001_016;[6, 6, 1, 1, 1, 1, 1, 1];8;CC;-50069.562265591674
16;-711.8440670514167;['C', 'C', 'H', 'H', 'H', 'H', 'H', 'H'];[[0.763777, 0.021866, -0.019355], [-0.770354, -0.017913, 0.014501], [1.213305, -0.759731, 0.610296], [1.203021, 0.946863, 0.414226], [1.185938, -0.061576, -1.026849], [-1.274105, 0.678083, -0.736339], [-1.156122, 0.206809, 1.010362], [-1.088093, -1.054319, -0.222593]];[0.0281, -0.0419, 0.0494];[[13.303861572332785, 16.86795939881851, 12.539666309933237], [-6.415629853379552, -1.8769768530533646, -22.32467861550409], [-6.46735536769246, -4.551527459493891, -5.540369405375664], [-11.963543452291638, -3.0015704072117884, -7.247987295701618], [-4.254431852984121, -3.817230303292679, -0.1951292258417647], [17.62759517927094, -17.644510916585787, 21.34099617702203], [-0.39281033858865044, 2.867880941745549, 1.5000671889585655], [-1.4376858866673028, 11.1559744132524, -0.07256513349069564]];2;mc_amon00007_001_017;[6, 6, 1, 1, 1, 1, 1, 1];8;CC;-50074.31997371232
17;-702.9558848076148;['C', 'C', 'H', 'H', 'H', 'H', 'H', 'H'];[[0.762918, 0.01458, -0.029844], [-0.749479, -0.021368, 0.020337], [1.134624, -0.766639, 0.511852], [0.88437, 0.991137, 0.521955], [1.19016, -0.076241, -1.051343], [-1.07548, 0.686902, -0.742961], [-1.167542, 0.278256, 1.011982], [-1.132248, -1.049662, -0.134012]];[0.0001, -0.0549, 0.0496];[[-29.89198854752477, 64.21965932427621, -7.619663931491446], [-18.677193852601963, -20.84945200595467, -0.5765580539678911], [33.05825171162213, -47.85716919314533, 42.94959066187126], [32.54180174098773, -18.252650942646657, -22.742476575312402], [-6.937061458255776, 14.562292819589016, 12.430723744012987], [-17.492723450215294, -4.418140378396056, 0.09082203441599469], [10.893324536677554, 0.7436177096743769, -14.052526136406879], [-3.4944118665106574, 11.85184266660312, -10.47991055730058]];2;mc_amon00007_001_018;[6, 6, 1, 1, 1, 1, 1, 1];8;CC;-50065.431791468516
18;-711.2136229037151;['C', 'C', 'H', 'H', 'H', 'H', 'H', 'H'];[[0.766587, 0.018991, -0.019539], [-0.771285, -0.02268, 0.020855], [1.267432, -0.72355, 0.60313], [1.175197, 0.965768, 0.39103], [1.162688, -0.104863, -1.036429], [-1.221739, 0.694684, -0.697471], [-1.250622, 0.241662, 1.026162], [-1.077878, -1.02678, -0.296787]];[0.0331, -0.0149, -0.0338];[[7.86092633956222, 22.00024983373269, 12.425771755297474], [-9.445938633800266, 8.549766231534385, 10.19141808252717], [-8.101717976675125, -10.954012486505754, 1.4257434828469153], [-7.7363499088849474, -2.618368776612076, -9.894758858164744], [-4.722297549273854, 1.2925224166964397, 1.584281828469665], [8.602164106384098, -6.749474054308328, 4.876195777117916], [20.900097237288694, -13.603146204505592, -25.903921748473184], [-7.356884800421869, 2.082463039968237, 5.295270866199839]];2;mc_amon00007_001_019;[6, 6, 1, 1, 1, 1, 1, 1];8;CC;-50073.68952956462
19;-685.2570651170314;['C', 'C', 'H', 'H', 'H', 'H', 'H', 'H'];[[0.714358, 0.061166, 0.007594], [-0.702984, -0.025085, -0.033252], [0.987201, -0.678518, 0.625261], [1.268387, 0.899134, 0.293564], [1.07596, -0.301897, -1.028743], [-1.234587, 0.758257, -0.57779], [-1.003075, -0.087911, 1.069489], [-1.211535, -1.027673, -0.116819]];[0.0221, -0.151, 0.2382];[[47.19437230312961, -31.698894048760984, -122.2558713714441], [-111.12386003002197, -11.267570846688292, 78.16831702304675], [40.19834233557186, -69.40810431513462, 58.908066817108846], [3.906680342750855, 46.74384212480733, 8.076656834550205], [4.502500873896621, 19.574578163983563, 30.368593744971918], [-5.606405408150933, -3.6618853737644885, 3.1335641485728583], [-5.811027131518486, 38.88789623366589, -17.413419295682868], [26.739396714342448, 10.830139247712653, -38.98590790112358]];2;mc_amon00007_001_020;[6, 6, 1, 1, 1, 1, 1, 1];8;CC;-50047.732971777936
20;-702.1833842493888;['C', 'C', 'H', 'H', 'H', 'H', 'H', 'H'];[[0.756258, 0.016169, 0.009968], [-0.779339, -0.02269, 0.006231], [1.493863, -0.752514, 0.473438], [1.105114, 0.893066, 0.467813], [1.05239, -0.02148, -1.106918], [-1.150807, 0.646395, -0.77004], [-1.120153, 0.349948, 0.933143], [-1.103031, -1.02916, -0.187051]];[-0.0562, 0.1067, 0.0178];[[37.29022411387065, -42.84533683239286, -55.99046439862923], [35.50335068767542, -9.745944245173032, -5.259795843591289], [-49.86464446721248, 8.67560081834843, -8.247058133982822], [11.63010598798389, 42.63358120957308, 5.308812942620139], [0.16171990350678317, 9.903258823469534, 37.90974327875194], [-0.0871293876583056, -0.3693180377162745, -3.283882382659224], [-20.39258479992748, 3.109489609563673, 29.7483702023854], [-14.241040852417434, -11.361332531493597, -0.1857244790738674]];2;mc_amon00007_001_021;[6, 6, 1, 1, 1, 1, 1, 1];8;CC;-50064.65929091029