;atomization_energy;atomtypes;coordinates;dipole;forces;heavy;name;nuclear_charges;size;smiles;total_energy
0;-676.5435039945928;['C', 'C', 'O', 'H', 'H', 'H', 'H'];[[-0.642962, -0.09455, -0.003044], [0.832459, 0.139193, 0.030039], [1.376223, 1.170113, 0.351856], [-1.180094, 0.761018, 0.40814], [-0.943354, -0.233623, -1.044094], [-0.865816, -1.013202, 0.551044], [1.463747, -0.722119, -0.292675]];[-1.6511, -2.092, -0.6884];[[-0.37276877697924027, 1.425302357415361, 2.109870921956184], [16.482790491092587, 3.7424678433915797, -1.407743905090023], [-5.306595457251841, -1.1018957533912663, 0.696125576519127], [-0.22808675035571876, -0.28383575549998247, 2.2243322990550727], [-2.462063332031307, -3.7131697626458426, -2.646813066199966], [-3.8780237911945568, 0.40786433685097, -1.4719549292653944], [-4.235251197458873, -0.47673326612081884, 0.49618310302499885]];3;mc_amon00012_001_001;[6, 6, 8, 1, 1, 1, 1];7;CC=O;-96496.68813271624
1;-655.1410433801724;['C', 'C', 'O', 'H', 'H', 'H', 'H'];[[-0.663463, -0.102, -0.048446], [0.80905, 0.203632, -0.027223], [1.406141, 1.142996, 0.415808], [-1.229843, 0.786798, 0.212181], [-1.02581, -0.760466, -0.964942], [-0.61306, -0.782461, 1.083997], [1.344677, -0.692959, -0.49765]];[-1.8149, -1.8761, -0.7306];[[6.045284894631755, -52.132341056338824, 60.2370674610243], [8.677058192422033, -43.95468072781529, -39.260710071845125], [-5.856981254768558, 11.166538893009708, 6.548209390340589], [-12.349965772870116, 0.5637559298843936, -7.591678554650899], [17.181488113474728, 32.975139885689906, 50.73326550314306], [-17.246146192186917, 34.02932294321015, -80.5100515354111], [3.549263205118129, 17.35226413235996, 9.843897807399156]];3;mc_amon00012_001_002;[6, 6, 8, 1, 1, 1, 1];7;CC=O;-96475.28567210182
2;-671.1791727389175;['C', 'C', 'O', 'H', 'H', 'H', 'H'];[[-0.628275, -0.084133, 0.004709], [0.83354, 0.115242, 0.04015], [1.355398, 1.182365, 0.335825], [-1.044215, 0.772079, 0.542132], [-0.935871, -0.066801, -1.129626], [-0.853238, -1.113321, 0.420707], [1.445537, -0.839003, -0.160509]];[-1.612, -2.1138, -0.6432];[[-14.131899068560354, -19.021691469866987, -39.37983765478586], [40.250589611147895, 6.997371131168207, 13.263580416998185], [-8.03879001087863, -32.18501783179707, -12.088208819547852], [-13.19156076119167, -7.860895508214854, -1.6521428098448332], [6.059251494988873, -1.635791523351007, 47.53597414538427], [-4.232165691080097, 28.483240252003224, -8.116980679442698], [-6.715424388604961, 25.222784950058486, 0.4376165870598394]];3;mc_amon00012_001_003;[6, 6, 8, 1, 1, 1, 1];7;CC=O;-96491.32380146056
3;-663.257478077135;['C', 'C', 'O', 'H', 'H', 'H', 'H'];[[-0.671749, -0.136965, -0.014162], [0.828676, 0.22264, -0.025058], [1.426206, 1.152028, 0.401781], [-1.319403, 0.749814, 0.178033], [-1.001537, -0.647806, -0.98167], [-1.085585, -0.823378, 0.913338], [1.472054, -0.657759, -0.493403]];[-1.844, -1.7351, -0.6178];[[-47.078653955715, -11.31075963524378, 33.52328803888043], [6.277695148545129, -93.28673145658375, -24.38221806858951], [-3.9964386956826994, 39.23777985015166, 15.555193830933721], [13.412674883758301, -3.426400285861813, -12.576765907383802], [14.385497573040968, 14.517567206949403, 29.221228869141076], [41.8134483964819, 27.434996972135288, -51.446838064808574], [-24.814222164607553, 26.833547348452992, 10.10611248764771]];3;mc_amon00012_001_004;[6, 6, 8, 1, 1, 1, 1];7;CC=O;-96483.40210679878
4;-671.4116882169247;['C', 'C', 'O', 'H', 'H', 'H', 'H'];[[-0.637853, -0.09519, -0.010482], [0.854623, 0.114333, 0.0317], [1.365272, 1.187048, 0.338942], [-1.184495, 0.721097, 0.621082], [-0.968484, -0.0558, -1.091972], [-0.952605, -1.052113, 0.486646], [1.430055, -0.799281, -0.114936]];[-1.5172, -2.2, -0.6056];[[-35.9819551794172, 21.19208906998822, 18.23009662622686], [-6.1041810688495275, 40.00083909598286, 34.15728607881355], [-8.93394972196562, -36.07551764628567, -16.769361935760838], [24.626888526365352, -25.023867025953773, -33.80017962629659], [0.7103969328867533, -4.253694272289425, 26.181970697236647], [10.634353077007766, 10.379757297021944, -19.269745075105803], [15.048446248151416, -6.219606518464153, -8.730065579292765]];3;mc_amon00012_001_005;[6, 6, 8, 1, 1, 1, 1];7;CC=O;-96491.55631693857
5;-668.3157804923907;['C', 'C', 'O', 'H', 'H', 'H', 'H'];[[-0.644571, -0.101498, 0.019388], [0.815116, 0.168931, -0.036829], [1.394981, 1.162754, 0.404106], [-1.251305, 0.90095, 0.067579], [-0.840458, -0.616392, -0.990903], [-0.872903, -0.915933, 0.790386], [1.36491, -0.703512, -0.539492]];[-1.749, -2.1072, -0.8125];[[-34.777055451936924, 2.536136829900866, -29.79971269649833], [40.3928596777505, 18.805398895700087, 18.159971912462343], [-24.199499645883893, -43.08791313018988, -22.868325391979077], [21.500627849655245, -49.5204456768527, 8.822266723592893], [-4.808052570332236, 17.12199191380436, 29.839770917475047], [2.070753057074152, 32.31932629585275, -15.94671755368034], [-0.17963173050578568, 21.82550368596347, 11.792746088627466]];3;mc_amon00012_001_006;[6, 6, 8, 1, 1, 1, 1];7;CC=O;-96488.46040921404
6;-663.5136180318354;['C', 'C', 'O', 'H', 'H', 'H', 'H'];[[-0.670271, -0.106061, -0.041702], [0.831469, 0.157079, 0.110376], [1.396419, 1.178946, 0.305656], [-1.136762, 0.647861, 0.758675], [-1.026688, -0.063921, -1.100314], [-0.684419, -1.18719, 0.239456], [1.300175, -0.817542, -0.05802]];[-1.4792, -1.9613, -0.5145];[[6.775569232391085, 23.767156405044815, 45.49156766045601], [-39.046085947899186, -37.470687104934285, -36.89957671288188], [16.836499566293945, 32.27230849111852, 12.592366569151354], [2.8084784219383305, -42.935283730872065, -48.60756624177723], [3.192277706348536, 12.211787974719918, 19.59694749231916], [-21.968431883250247, 17.69682222649866, 4.841816453161935], [31.40169171835648, -5.542104261575568, 2.9844447795706364]];3;mc_amon00012_001_007;[6, 6, 8, 1, 1, 1, 1];7;CC=O;-96483.65824675349
7;-661.0304551110252;['C', 'C', 'O', 'H', 'H', 'H', 'H'];[[-0.644474, -0.113143, -0.023057], [0.807881, 0.177217, 0.074643], [1.408211, 1.174311, 0.316078], [-1.0962, 0.626169, 0.678377], [-1.144195, -0.117424, -1.099827], [-0.968715, -1.241516, 0.254064], [1.45908, -0.768698, 0.045996]];[-1.9069, -1.921, -0.5331];[[-67.0692394897175, -35.63283997497347, -19.210374572467007], [42.314209954590865, -90.03963324297511, -4.276877073867082], [-8.701220482189107, 49.19734027137596, 3.3451324116663392], [-11.583461716881226, -12.615378612497441, -17.259511581270385], [30.497356123964742, 19.502400793977056, 45.57766894126175], [30.010072607939247, 59.283059008561644, 0.43754780943879057], [-15.467716997707015, 10.305051756531366, -8.61358593476241]];3;mc_amon00012_001_008;[6, 6, 8, 1, 1, 1, 1];7;CC=O;-96481.17508383267
8;-663.8499342445298;['C', 'C', 'O', 'H', 'H', 'H', 'H'];[[-0.713549, -0.13273, 0.002603], [0.831669, 0.192685, -0.058054], [1.436963, 1.167546, 0.420719], [-1.268551, 0.857768, 0.120307], [-0.892776, -0.840133, -0.952809], [-0.944734, -0.766021, 0.818091], [1.452135, -0.555837, -0.496176]];[-1.656, -2.1309, -0.7592];[[34.66485543558528, 19.763874336067758, -65.0420060652725], [1.4093198612688824, 50.82144315661183, 50.92245376551146], [-49.629679954751886, -42.07294754652008, -24.473169357500232], [8.32886911422037, -35.050381275448025, -14.860006238867173], [-4.304844663391839, 49.271685322266556, 42.477391975455454], [-1.0460637407733229, -15.557401829733598, 30.11731114900696], [10.577542762021455, -27.17627216324443, -19.141975228333973]];3;mc_amon00012_001_009;[6, 6, 8, 1, 1, 1, 1];7;CC=O;-96483.99456296618
9;-666.726108859019;['C', 'C', 'O', 'H', 'H', 'H', 'H'];[[-0.692706, -0.128038, -0.00543], [0.80948, 0.209606, 0.032676], [1.425308, 1.157093, 0.347845], [-1.185905, 0.719776, 0.4343], [-0.940341, -0.350074, -1.053042], [-0.854385, -1.080846, 0.429325], [1.510266, -0.717496, -0.151788]];[-1.8335, -1.8296, -0.5965];[[43.862485512620424, 28.532342730147857, -29.256981373875924], [14.367126833294622, -121.91820764090502, -9.515975596806891], [3.895155347940971, 80.494393954233, 17.287032116258327], [-22.134252355956804, 2.6198605394962033, 1.8835664606424714], [-5.009101414868409, 16.09739864900879, -1.7248549851460468], [-3.3871733254429452, -18.991730515152867, 28.852008068751108], [-31.59423941176681, 13.165943468993097, -7.524794689823045]];3;mc_amon00012_001_010;[6, 6, 8, 1, 1, 1, 1];7;CC=O;-96486.87073758067
10;-672.2317351679943;['C', 'C', 'O', 'H', 'H', 'H', 'H'];[[-0.635861, -0.095027, -0.02687], [0.827185, 0.174382, -0.021546], [1.387066, 1.155587, 0.401438], [-1.223404, 0.815023, 0.266112], [-1.035516, -0.66736, -0.917059], [-0.811444, -0.823802, 0.836319], [1.330216, -0.693591, -0.444495]];[-1.6913, -2.1306, -0.6865];[[-41.17381652072805, -9.847499145935798, 33.09957876112508], [-9.250273416842742, -0.7028800132345403, -7.658301538847189], [-2.1628024162795523, -3.4181362989464836, -1.2081476913432438], [7.6802854753407015, -16.182312922940902, -15.41050350356283], [13.337122667036194, 22.50073390971534, 14.93809967010493], [6.22317821147448, 15.484881757442901, -19.362552173963792], [25.346304814177923, -7.834786100279466, -4.398172337691904]];3;mc_amon00012_001_011;[6, 6, 8, 1, 1, 1, 1];7;CC=O;-96492.37636388965
11;-639.2503994556779;['C', 'C', 'O', 'H', 'H', 'H', 'H'];[[-0.660559, -0.131937, -0.005643], [0.871736, 0.116391, 0.074591], [1.34779, 1.18033, 0.29681], [-0.933651, 0.846984, 0.705034], [-1.081911, 0.423644, -1.155962], [-0.943581, -1.230475, 0.309465], [1.605108, -0.719602, 0.154325]];[-1.3261, -1.9096, -0.3535];[[-4.73424825384161, 85.4565048382514, -24.32216097556127], [-11.200411871376241, -51.62964542409313, 12.881571722377354], [8.850483335538689, 54.0584358032105, -2.2865369140095035], [-4.7796296255232935, -73.55745344972459, -30.45630774240913], [26.873980288882315, -59.334804681832445, 78.30795456691267], [0.4120004806823186, 58.32701212970962, -20.368141470570947], [-15.422175540183233, -13.320048029700303, -13.756379186739162]];3;mc_amon00012_001_012;[6, 6, 8, 1, 1, 1, 1];7;CC=O;-96459.39502817733
12;-656.941004733487;['C', 'C', 'O', 'H', 'H', 'H', 'H'];[[-0.633985, -0.075235, -0.005948], [0.889989, 0.091959, 0.072904], [1.326431, 1.186682, 0.298789], [-0.925564, 0.717858, 0.782385], [-1.139382, 0.188681, -1.053668], [-1.050709, -1.259026, 0.154483], [1.593327, -0.800945, 0.109642]];[-1.2813, -1.9686, -0.475];[[-42.06214115926806, -39.27712420685474, -17.799915137166607], [-7.483583850783234, -22.85078472696953, 7.495746817319399], [14.073004080163633, 13.90162922164686, -3.74961834433855], [-10.191752484063993, -37.92600207120367, -28.295498691318944], [33.22856288865474, -4.125980159107064, 49.39364464588082], [30.011299932728654, 80.26747049432986, 3.0321574754416636], [-17.575388221610687, 10.010791448158281, -10.07651676581778]];3;mc_amon00012_001_013;[6, 6, 8, 1, 1, 1, 1];7;CC=O;-96477.08563345514
13;-628.398509771324;['C', 'C', 'O', 'H', 'H', 'H', 'H'];[[-0.603032, -0.035657, 0.045245], [0.872846, 0.170623, -0.130522], [1.289813, 1.091675, 0.445762], [-1.106301, 1.131887, -0.081963], [-0.740418, -0.965769, -0.847605], [-0.898357, -0.614595, 1.125545], [1.659928, -0.571467, -0.683844]];[-1.0851, -1.526, -0.681];[[-41.076696590701886, -62.245540010596656, -33.742797745562946], [-0.046228047913215, -74.3471260774385, -10.267499175438724], [68.49057764735414, 90.10759976242396, 39.15311815610375], [22.69728967828334, -92.95993459017036, 5.594515180456859], [-23.56972194307686, 69.4828145989094, 53.31262195294677], [21.94729106552511, 45.900977122138485, -69.6031280029027], [-48.44251299529168, 24.0612091947337, 15.55316844857594]];3;mc_amon00012_001_014;[6, 6, 8, 1, 1, 1, 1];7;CC=O;-96448.54313849297
14;-665.6574050037252;['C', 'C', 'O', 'H', 'H', 'H', 'H'];[[-0.582778, -0.084889, 0.023137], [0.817674, 0.129495, -0.053944], [1.344453, 1.16446, 0.406954], [-1.048725, 0.96192, 0.127418], [-0.886041, -0.544864, -0.918113], [-0.929696, -0.79657, 0.740671], [1.307352, -0.709795, -0.484307]];[-1.6847, -2.3375, -0.8901];[[-71.73026685102636, 47.92180592707857, -27.608767189178238], [48.30045519065748, 76.84684990027824, 58.08018584926022], [-11.51960999648478, -60.86650483318925, -35.12835849622263], [3.2247620882625165, -41.22149245614646, 2.9595709971720217], [-8.12726174796844, 2.8794225380501692, -9.02599433788681], [-0.7740091174305791, -8.028114063942382, 25.39116561041753], [40.625931619811205, -17.53196819794995, -14.667801247741037]];3;mc_amon00012_001_015;[6, 6, 8, 1, 1, 1, 1];7;CC=O;-96485.80203372537
15;-675.7762983613242;['C', 'C', 'O', 'H', 'H', 'H', 'H'];[[-0.644828, -0.091153, -0.011995], [0.857055, 0.147332, -0.010497], [1.364996, 1.163938, 0.384224], [-1.126488, 0.821456, 0.31575], [-1.0334, -0.467513, -0.957226], [-0.897611, -0.882714, 0.730063], [1.434931, -0.704302, -0.379693]];[-1.4961, -2.11, -0.7141];[[5.888757701514156, -10.777275345189281, 19.923556999006234], [-26.17774087354215, -3.1418008616039783, -0.22895477136619674], [6.30274324663847, 2.769499298119449, 0.39114426000979585], [-7.606166916271143, 6.403840420474945, -3.2978537263005507], [1.8167418868672456, 4.031008936828141, -7.079354055458378], [6.656025426260901, 7.273212081131792, -5.877627585114777], [13.119638342711463, -6.55848452976107, -3.83091230659718]];3;mc_amon00012_001_016;[6, 6, 8, 1, 1, 1, 1];7;CC=O;-96495.92092708297
16;-648.3424934131439;['C', 'C', 'O', 'H', 'H', 'H', 'H'];[[-0.591094, -0.044833, 0.038029], [0.838682, 0.062286, 0.076856], [1.319277, 1.183654, 0.293141], [-1.114065, 0.660767, 0.717865], [-0.692602, 0.198115, -1.28813], [-0.995338, -1.168507, 0.234749], [1.544578, -0.816798, -0.155884]];[-1.5784, -2.2179, -0.4989];[[-65.08475254257539, -67.25494499565453, -74.00272214003662], [76.16982197181069, 53.23305691778278, 19.04945984145491], [-1.1597946521038316, -45.5162623838757, -6.0371869226637855], [7.503867319887368, -3.3548869756447433, -21.61951826838547], [-12.789370578077225, -15.516447128041143, 94.57089976396486], [19.824976137443304, 60.756371702932235, -16.338719162311136], [-24.464748842205967, 17.6531128625011, 4.37778688797725]];3;mc_amon00012_001_017;[6, 6, 8, 1, 1, 1, 1];7;CC=O;-96468.48712213479
17;-666.3734177866087;['C', 'C', 'O', 'H', 'H', 'H', 'H'];[[-0.644175, -0.088907, 0.00659], [0.824983, 0.145767, 0.013282], [1.398161, 1.176665, 0.354486], [-1.404681, 0.666324, 0.443247], [-0.746697, -0.281384, -1.093654], [-0.911676, -1.076366, 0.562096], [1.304455, -0.776661, -0.26458]];[-1.6978, -2.2443, -0.6995];[[-46.67727961748472, -21.04541249235428, 13.619214079767854], [-2.3193651840287277, 56.46011119813991, 52.91329315603217], [-12.759511603973625, -38.03926576903947, -19.554533044910997], [39.29552577794845, -15.582613571132194, -24.901537726171114], [-22.275471785106834, 1.5470434899559495, 15.455877760318199], [16.580171301750322, 30.60361754848514, -25.600782012058488], [28.15593111089514, -13.943480404055057, -11.93153221297763]];3;mc_amon00012_001_018;[6, 6, 8, 1, 1, 1, 1];7;CC=O;-96486.51804650825
18;-673.8398129092595;['C', 'C', 'O', 'H', 'H', 'H', 'H'];[[-0.638879, -0.082403, 0.002681], [0.853362, 0.157238, -0.045229], [1.348783, 1.145706, 0.398887], [-1.091935, 0.907404, 0.261348], [-0.967571, -0.574788, -0.953708], [-0.863527, -0.804252, 0.800139], [1.527757, -0.696695, -0.382835]];[-1.4544, -2.0041, -0.6843];[[1.5718698395124617, 0.9342431871584977, -14.581884955019504], [-1.4285609936678108, -41.744745482159416, 6.363721722624548], [16.69770988448062, 31.257346464911887, 5.576793084826266], [-1.5769605692911255, -21.20734228618737, -12.499042452314448], [-1.979722318152906, 17.8696829187943, 16.954003760213716], [2.024159776276747, 1.5931790438270643, 0.4014466733144853], [-15.308495619157986, 11.297636153655038, -2.2150366478240118]];3;mc_amon00012_001_019;[6, 6, 8, 1, 1, 1, 1];7;CC=O;-96493.9844416309
19;-672.6140013894495;['C', 'C', 'O', 'H', 'H', 'H', 'H'];[[-0.64068, -0.097517, -0.014139], [0.814297, 0.164088, -0.009605], [1.397116, 1.165551, 0.391684], [-1.219417, 0.788758, 0.232829], [-1.05347, -0.548981, -0.998319], [-0.761607, -0.916179, 0.756519], [1.346963, -0.709123, -0.39229]];[-1.7794, -2.1662, -0.7482];[[-31.22437826800846, -27.659672115322774, -11.492952739223107], [22.385000146627046, 29.601596387425154, 1.6631092829389593], [-22.496581164389255, -30.768362481497018, -12.200838103120526], [-3.4672518211226957, 0.9776608391771324, 5.880234019788316], [22.325362834251422, 16.344382643658193, 32.05275965234128], [-6.086440000082094, 18.07507661166707, -12.809593570307678], [18.56428827272404, -6.570680699286706, -3.092719728238291]];3;mc_amon00012_001_020;[6, 6, 8, 1, 1, 1, 1];7;CC=O;-96492.7586301111
20;-659.1098130181724;['C', 'C', 'O', 'H', 'H', 'H', 'H'];[[-0.588371, -0.08338, 0.006503], [0.817469, 0.153125, -0.07656], [1.345248, 1.1486, 0.422555], [-1.021106, 1.017966, 0.117998], [-1.177234, -0.65347, -0.903584], [-0.86084, -0.792609, 0.859058], [1.53022, -0.719435, -0.37008]];[-1.7192, -2.1199, -0.7441];[[-119.18764359122551, 2.8315651720107295, -32.06775791701412], [101.58807173506881, -8.238284244014888, 31.112893301751516], [-19.42549911289713, -24.676593401604695, -26.907344550017303], [5.653021219548338, -59.61297458434328, 3.1857782211594237], [44.33176826506797, 36.73694372716462, 41.26809166604912], [12.078003643569474, 28.65133157202544, -13.616468904031166], [-25.03772215913195, 24.30801175876206, -2.9751918178974677]];3;mc_amon00012_001_021;[6, 6, 8, 1, 1, 1, 1];7;CC=O;-96479.25444173982
21;-671.8188690745517;['C', 'C', 'O', 'H', 'H', 'H', 'H'];[[-0.608838, -0.073505, 0.008937], [0.859738, 0.106087, 0.07608], [1.333384, 1.178961, 0.314206], [-1.108376, 0.751778, 0.569762], [-0.885146, 0.034856, -1.055626], [-0.963882, -1.13525, 0.284238], [1.404311, -0.852477, -0.258234]];[-1.4929, -2.007, -0.6551];[[-37.55369220697177, -23.08747342324056, 5.428094682297706], [-9.904652163206299, -29.665378144379492, -19.240446994360067], [26.455024967726704, 6.087548742766244, 5.9890425879296245], [3.131943131194001, -18.50863887654819, -5.879956537662015], [0.6128987259448146, 0.8198968347017079, 3.2861650881854123], [11.599859250396102, 37.828330734388054, -1.6917682061373633], [5.6586182949164465, 26.525712946491186, 12.10886819392565]];3;mc_amon00012_001_022;[6, 6, 8, 1, 1, 1, 1];7;CC=O;-96491.9634977962
22;-669.8988369208781;['C', 'C', 'O', 'H', 'H', 'H', 'H'];[[-0.636915, -0.102888, 0.004817], [0.850342, 0.142598, -0.047529], [1.354479, 1.155843, 0.410799], [-1.037637, 0.969498, 0.081431], [-1.016611, -0.532076, -0.950894], [-0.93729, -0.754284, 0.953277], [1.528855, -0.583565, -0.538833]];[-1.4916, -2.0257, -0.8539];[[-20.028550780821444, 14.89780902820191, 21.638898141847545], [19.8225938229487, 19.517675354955152, 9.034590354696858], [-10.42931275880866, -17.890374310340516, -6.71274799048932], [1.1694543503980301, -38.23314276784972, 6.298595244596595], [4.578696991450273, -2.7995930647914573, 17.78289741924124], [12.20571064182552, 30.882398148838035, -48.319328718530116], [-7.318592266992423, -6.374772389013406, 0.2770955486372]];3;mc_amon00012_001_023;[6, 6, 8, 1, 1, 1, 1];7;CC=O;-96490.04346564252
23;-662.8880437969013;['C', 'C', 'O', 'H', 'H', 'H', 'H'];[[-0.66271, -0.094073, 0.006596], [0.884987, 0.16116, -0.047397], [1.351242, 1.138114, 0.412269], [-1.215488, 0.982362, 0.038038], [-0.957722, -0.608318, -0.941026], [-0.870666, -0.749218, 1.014927], [1.535583, -0.574768, -0.614592]];[-1.2365, -1.8253, -0.8214];[[-3.4022581550526314, 16.242506385390183, 27.947594210169896], [-48.88975489183519, -42.94305915951374, -31.89403750445538], [33.59468751027646, 50.20848276797228, 27.47889488168021], [30.520177250121364, -62.201559093578055, 5.839361139748487], [-2.092335000230845, -0.1749169060007851, 22.166280196765545], [3.306079766942198, 36.38846530862614, -61.38203816415002], [-13.0365952944003, 2.480080697103988, 9.843944054420206]];3;mc_amon00012_001_024;[6, 6, 8, 1, 1, 1, 1];7;CC=O;-96483.03267251854